/*--------------------------------*- C++ -*----------------------------------*\
  =========                 |
  \\      /  F ield         | OpenFOAM: The Open Source CFD Toolbox
   \\    /   O peration     | Website:  https://openfoam.org
    \\  /    A nd           | Version:  9
     \\/     M anipulation  |
\*---------------------------------------------------------------------------*/
FoamFile
{
    format      ascii;
    class       volScalarField;
    location    "5";
    object      epsilon;
}
// * * * * * * * * * * * * * * * * * * * * * * * * * * * * * * * * * * * * * //

dimensions      [0 2 -3 0 0 0 0];

internalField   nonuniform List<scalar> 
36000
(
0.00123777
0.00123759
0.00123661
0.00123632
0.00123629
0.00123627
0.00123636
0.00123658
0.00123763
0.00123777
0.00123759
0.000113157
8.84365e-05
8.69955e-05
8.6922e-05
8.68976e-05
8.70708e-05
8.83947e-05
0.000113273
0.00123763
0.00123658
8.83934e-05
5.41469e-05
5.16874e-05
5.14225e-05
5.14071e-05
5.17089e-05
5.41074e-05
8.84508e-05
0.00123661
0.00123633
8.70088e-05
5.17167e-05
4.89477e-05
4.86583e-05
4.86443e-05
4.89736e-05
5.16803e-05
8.70777e-05
0.00123636
0.00123628
8.68939e-05
5.14433e-05
4.86471e-05
4.83381e-05
4.83236e-05
4.86695e-05
5.1405e-05
8.69555e-05
0.00123631
0.00123628
8.6894e-05
5.14433e-05
4.86471e-05
4.83381e-05
4.83236e-05
4.86695e-05
5.1405e-05
8.69555e-05
0.00123631
0.00123633
8.70089e-05
5.17167e-05
4.89477e-05
4.86583e-05
4.86443e-05
4.89736e-05
5.16803e-05
8.70777e-05
0.00123636
0.00123658
8.83934e-05
5.41469e-05
5.16874e-05
5.14225e-05
5.14071e-05
5.17089e-05
5.41074e-05
8.84508e-05
0.00123661
0.00123759
0.000113157
8.84363e-05
8.69956e-05
8.69221e-05
8.68976e-05
8.70709e-05
8.83947e-05
0.000113273
0.00123763
0.00123777
0.00123759
0.00123661
0.00123632
0.00123629
0.00123627
0.00123636
0.00123658
0.00123763
0.00123777
0.00132272
0.00131722
0.00131574
0.00131473
0.00131471
0.00131466
0.00131484
0.00131566
0.00131735
0.00132266
0.00131724
0.000169534
0.000123112
0.000120105
0.000119582
0.00011954
0.000120328
0.000123131
0.000169942
0.00131733
0.00131566
0.00012301
6.24344e-05
5.68741e-05
5.60617e-05
5.60382e-05
5.69316e-05
6.24203e-05
0.000123232
0.00131575
0.00131474
0.000120093
5.68945e-05
5.03891e-05
4.94581e-05
4.94476e-05
5.04501e-05
5.69007e-05
0.000120334
0.00131485
0.00131465
0.000119469
5.60641e-05
4.94443e-05
4.84577e-05
4.84446e-05
4.94928e-05
5.60639e-05
0.000119685
0.00131475
0.00131465
0.000119469
5.60641e-05
4.94442e-05
4.84577e-05
4.84446e-05
4.94928e-05
5.60639e-05
0.000119685
0.00131475
0.00131474
0.000120094
5.68944e-05
5.03891e-05
4.94581e-05
4.94476e-05
5.04501e-05
5.69007e-05
0.000120334
0.00131485
0.00131566
0.00012301
6.24344e-05
5.6874e-05
5.60617e-05
5.60382e-05
5.69316e-05
6.24203e-05
0.000123232
0.00131575
0.00131724
0.000169534
0.000123112
0.000120105
0.000119582
0.00011954
0.000120328
0.00012313
0.000169942
0.00131733
0.00132272
0.00131722
0.00131574
0.00131473
0.00131471
0.00131466
0.00131484
0.00131566
0.00131735
0.00132266
0.00141305
0.00139726
0.00139719
0.00139468
0.00139496
0.00139488
0.00139482
0.00139704
0.00139737
0.00141285
0.00139727
0.000213428
0.000152344
0.00014694
0.000146036
0.000146003
0.000147298
0.000152512
0.000213996
0.00139738
0.00139703
0.000152201
7.20656e-05
6.30385e-05
6.15845e-05
6.15764e-05
6.31343e-05
7.21212e-05
0.000152604
0.00139717
0.00139467
0.000146861
6.30183e-05
5.23437e-05
5.06115e-05
5.06278e-05
5.24414e-05
6.31405e-05
0.000147269
0.00139484
0.00139484
0.000145805
6.1539e-05
5.06e-05
4.87648e-05
4.87759e-05
5.06761e-05
6.16442e-05
0.000146161
0.001395
0.00139484
0.000145805
6.1539e-05
5.06e-05
4.87648e-05
4.87759e-05
5.06761e-05
6.16442e-05
0.000146161
0.001395
0.00139467
0.000146861
6.30181e-05
5.23436e-05
5.06115e-05
5.06278e-05
5.24414e-05
6.31405e-05
0.000147269
0.00139484
0.00139703
0.000152201
7.20656e-05
6.30384e-05
6.15845e-05
6.15763e-05
6.31343e-05
7.21212e-05
0.000152604
0.00139717
0.00139727
0.000213428
0.000152344
0.00014694
0.000146036
0.000146003
0.000147298
0.000152512
0.000213996
0.00139738
0.00141305
0.00139726
0.00139719
0.00139468
0.00139496
0.00139488
0.00139482
0.00139704
0.00139737
0.00141285
0.00150686
0.00147814
0.00148036
0.00147551
0.00147644
0.00147633
0.00147554
0.00148009
0.00147804
0.00150637
0.00147804
0.000250474
0.000178411
0.000170067
0.000168957
0.000168972
0.000170521
0.000178812
0.000252521
0.00147794
0.00148007
0.000178277
8.18904e-05
6.95298e-05
6.73638e-05
6.74028e-05
6.96569e-05
8.21056e-05
0.000178803
0.00148028
0.00147543
0.000169907
6.94366e-05
5.46981e-05
5.20973e-05
5.21652e-05
5.4846e-05
6.97986e-05
0.000170419
0.00147571
0.00147626
0.000168618
6.72438e-05
5.20914e-05
4.9314e-05
4.93745e-05
5.22109e-05
6.75701e-05
0.000169071
0.00147652
0.00147626
0.000168618
6.72438e-05
5.20913e-05
4.9314e-05
4.93745e-05
5.22108e-05
6.75703e-05
0.000169071
0.00147652
0.00147543
0.000169906
6.94364e-05
5.4698e-05
5.20972e-05
5.21651e-05
5.4846e-05
6.97985e-05
0.000170419
0.00147571
0.00148007
0.000178277
8.18905e-05
6.95296e-05
6.73638e-05
6.74027e-05
6.96569e-05
8.21055e-05
0.000178803
0.00148028
0.00147804
0.000250474
0.00017841
0.000170067
0.000168957
0.000168972
0.000170521
0.000178812
0.000252521
0.00147794
0.00150686
0.00147814
0.00148036
0.00147551
0.00147644
0.00147633
0.00147554
0.00148009
0.00147804
0.00150637
0.00160304
0.00155941
0.00156465
0.001557
0.00155881
0.00155864
0.00155674
0.00156417
0.00155901
0.00160195
0.00155942
0.000289489
0.000202022
0.000190878
0.000189558
0.00018974
0.000191365
0.000202861
0.000295366
0.00155842
0.00156415
0.000201953
9.13791e-05
7.5987e-05
7.30823e-05
7.32018e-05
7.61759e-05
9.19477e-05
0.000203563
0.00156438
0.0015567
0.000190551
7.57716e-05
5.73643e-05
5.38617e-05
5.40006e-05
5.76064e-05
7.66111e-05
0.000193612
0.00155678
0.00155848
0.000189056
7.28429e-05
5.38553e-05
5.00937e-05
5.02235e-05
5.40694e-05
7.36273e-05
0.000192285
0.00155851
0.00155848
0.000189056
7.28429e-05
5.38553e-05
5.00937e-05
5.02235e-05
5.40693e-05
7.36268e-05
0.000192284
0.00155851
0.0015567
0.000190551
7.57714e-05
5.73642e-05
5.38617e-05
5.40005e-05
5.76064e-05
7.66113e-05
0.000193612
0.00155678
0.00156415
0.000201953
9.13791e-05
7.59868e-05
7.30822e-05
7.32017e-05
7.61758e-05
9.19476e-05
0.000203563
0.00156438
0.00155942
0.000289488
0.000202021
0.000190879
0.000189558
0.00018974
0.000191365
0.00020286
0.000295366
0.00155842
0.00160304
0.00155941
0.00156465
0.001557
0.00155881
0.00155864
0.00155674
0.00156417
0.00155901
0.00160195
0.00170128
0.00164104
0.00164982
0.00163878
0.00164149
0.00164114
0.00163809
0.00164875
0.00164057
0.00169877
0.00164153
0.000328781
0.000224321
0.000212285
0.000210946
0.000211588
0.000212494
0.000226449
0.000339982
0.00163887
0.00164901
0.000223773
0.000100485
8.23573e-05
7.87558e-05
7.89904e-05
8.26864e-05
0.000101729
0.00023017
0.00164859
0.00163852
0.000209489
8.19093e-05
6.02457e-05
5.58463e-05
5.60752e-05
6.06589e-05
8.35852e-05
0.000218584
0.00163756
0.00164142
0.000207768
7.82546e-05
5.58184e-05
5.10805e-05
5.12976e-05
5.62094e-05
7.98625e-05
0.000217136
0.00164041
0.00164142
0.000207768
7.82545e-05
5.58184e-05
5.10805e-05
5.12976e-05
5.62093e-05
7.98621e-05
0.000217136
0.00164041
0.00163852
0.000209489
8.19091e-05
6.02456e-05
5.58463e-05
5.60752e-05
6.06589e-05
8.35854e-05
0.000218584
0.00163756
0.00164901
0.000223773
0.000100485
8.23572e-05
7.87558e-05
7.89903e-05
8.26863e-05
0.000101728
0.00023017
0.00164859
0.00164153
0.000328781
0.000224321
0.000212285
0.000210946
0.000211588
0.000212494
0.000226449
0.000339982
0.00163887
0.00170128
0.00164104
0.00164982
0.00163878
0.00164149
0.00164114
0.00163809
0.00164875
0.00164057
0.00169877
0.00180139
0.00172301
0.00173543
0.00172077
0.00172436
0.00172369
0.0017194
0.00173332
0.00172278
0.00179623
0.00172453
0.000365461
0.000246602
0.000233403
0.000231997
0.000233137
0.000233406
0.000250158
0.000384366
0.00171907
0.00173441
0.000244066
0.00010922
8.86347e-05
8.4369e-05
8.47591e-05
8.91812e-05
0.000111535
0.000257731
0.00173254
0.00172077
0.000227072
8.78182e-05
6.32736e-05
5.80168e-05
5.83619e-05
6.39685e-05
9.07763e-05
0.000244638
0.00171783
0.0017249
0.000225117
8.34556e-05
5.79304e-05
5.22621e-05
5.25904e-05
5.86175e-05
8.63441e-05
0.000242975
0.00172191
0.0017249
0.000225117
8.34555e-05
5.79304e-05
5.22621e-05
5.25904e-05
5.86175e-05
8.63439e-05
0.000242974
0.00172191
0.00172077
0.000227071
8.7818e-05
6.32735e-05
5.80168e-05
5.83619e-05
6.39685e-05
9.07764e-05
0.000244638
0.00171783
0.00173441
0.000244066
0.00010922
8.86346e-05
8.43689e-05
8.47591e-05
8.91811e-05
0.000111535
0.00025773
0.00173254
0.00172453
0.000365461
0.000246601
0.000233403
0.000231997
0.000233137
0.000233406
0.000250158
0.000384366
0.00171907
0.00180139
0.00172301
0.00173543
0.00172077
0.00172436
0.00172369
0.0017194
0.00173332
0.00172278
0.00179623
0.00190306
0.0018053
0.00182132
0.00180286
0.00180722
0.00180603
0.00180047
0.00181751
0.00180566
0.00189348
0.0018085
0.000397952
0.00026798
0.000253596
0.000252136
0.000253823
0.000253467
0.000273417
0.000427892
0.0017986
0.00181997
0.000262969
0.00011757
9.48013e-05
8.99287e-05
9.05201e-05
9.56845e-05
0.000121484
0.000286247
0.00181572
0.00180311
0.000243466
9.34849e-05
6.64007e-05
6.03548e-05
6.0852e-05
6.75328e-05
9.83031e-05
0.000271826
0.00179712
0.00180854
0.000241277
8.84368e-05
6.01635e-05
5.364e-05
5.41131e-05
6.13094e-05
9.31951e-05
0.000269874
0.00180254
0.00180854
0.000241277
8.84367e-05
6.01635e-05
5.364e-05
5.41131e-05
6.13094e-05
9.31951e-05
0.000269874
0.00180254
0.00180311
0.000243465
9.34847e-05
6.64006e-05
6.03547e-05
6.0852e-05
6.75328e-05
9.83031e-05
0.000271826
0.00179712
0.00181997
0.000262968
0.00011757
9.48012e-05
8.99287e-05
9.05201e-05
9.56844e-05
0.000121484
0.000286246
0.00181572
0.0018085
0.000397952
0.000267979
0.000253597
0.000252136
0.000253823
0.000253467
0.000273417
0.000427892
0.0017986
0.00190306
0.0018053
0.00182132
0.00180286
0.00180722
0.00180603
0.00180047
0.00181751
0.00180566
0.00189348
0.00200594
0.00188793
0.00190733
0.00188493
0.00188987
0.00188786
0.00188103
0.00190092
0.00188918
0.0019894
0.00189357
0.000425733
0.000288216
0.000272777
0.000271284
0.000273582
0.000272638
0.000296262
0.000471283
0.00187684
0.00190526
0.000280562
0.00012557
0.000100881
9.54739e-05
9.63212e-05
0.000102269
0.000131819
0.000316483
0.00189747
0.00188514
0.000258769
9.89189e-05
6.96118e-05
6.28703e-05
6.35698e-05
7.14014e-05
0.000106384
0.000300999
0.00187484
0.00189193
0.000256348
9.32122e-05
6.25151e-05
5.52363e-05
5.59019e-05
6.4344e-05
0.000100637
0.000298684
0.00188165
0.00189193
0.000256348
9.32121e-05
6.25151e-05
5.52363e-05
5.59019e-05
6.4344e-05
0.000100638
0.000298684
0.00188165
0.00188514
0.000258768
9.89187e-05
6.96118e-05
6.28703e-05
6.35697e-05
7.14014e-05
0.000106384
0.000300999
0.00187484
0.00190526
0.000280561
0.00012557
0.000100881
9.54738e-05
9.63212e-05
0.000102269
0.000131819
0.000316483
0.00189747
0.00189357
0.000425732
0.000288216
0.000272777
0.000271284
0.000273582
0.000272638
0.000296262
0.000471283
0.00187684
0.00200594
0.00188793
0.00190733
0.00188493
0.00188987
0.00188786
0.00188103
0.00190092
0.00188918
0.0019894
0.00210978
0.00197104
0.00199339
0.00196697
0.00197215
0.00196892
0.00196085
0.00198314
0.00197332
0.0020827
0.00197955
0.000449522
0.000307369
0.000291063
0.000289581
0.000292564
0.000291126
0.000319127
0.000516035
0.00195298
0.00198991
0.000296937
0.000133286
0.000106936
0.000101086
0.000102259
0.000109077
0.000142895
0.00034981
0.00197694
0.0019665
0.000273062
0.000104168
7.29389e-05
6.56182e-05
6.6589e-05
7.56933e-05
0.000115374
0.00033359
0.00195022
0.00197465
0.000270421
9.78298e-05
6.50218e-05
5.71103e-05
5.80357e-05
6.78462e-05
0.000109031
0.000330853
0.00195845
0.00197465
0.000270421
9.78297e-05
6.50218e-05
5.71103e-05
5.80357e-05
6.78462e-05
0.000109032
0.000330853
0.00195845
0.0019665
0.000273062
0.000104167
7.29388e-05
6.56182e-05
6.6589e-05
7.56933e-05
0.000115374
0.00033359
0.00195022
0.00198991
0.000296937
0.000133285
0.000106935
0.000101086
0.000102258
0.000109077
0.000142895
0.00034981
0.00197694
0.00197955
0.000449522
0.000307368
0.000291063
0.000289581
0.000292564
0.000291126
0.000319127
0.000516035
0.00195298
0.00210978
0.00197104
0.00199339
0.00196698
0.00197215
0.00196892
0.00196085
0.00198314
0.00197332
0.0020827
0.00221449
0.00205495
0.00207951
0.00204904
0.00205394
0.00204895
0.0020397
0.00206376
0.00205803
0.00217175
0.00206535
0.000471319
0.000325624
0.000308666
0.000307274
0.000311023
0.000309262
0.00034267
0.00056423
0.00202592
0.00207347
0.000312219
0.000140837
0.000113091
0.000106914
0.0001085
0.000116342
0.000155256
0.000388131
0.00205304
0.00204677
0.000286436
0.000109329
7.6485e-05
6.87239e-05
7.00614e-05
8.06295e-05
0.000125847
0.000371614
0.00202224
0.00205625
0.000283597
0.000102391
6.77869e-05
5.93866e-05
6.06671e-05
7.20395e-05
0.00011895
0.000368398
0.00203189
0.00205625
0.000283597
0.000102391
6.77869e-05
5.93866e-05
6.06671e-05
7.20396e-05
0.00011895
0.000368398
0.00203189
0.00204677
0.000286435
0.000109329
7.64849e-05
6.87239e-05
7.00614e-05
8.06294e-05
0.000125847
0.000371614
0.00202224
0.00207347
0.000312219
0.000140837
0.000113091
0.000106914
0.0001085
0.000116342
0.000155256
0.000388131
0.00205304
0.00206535
0.000471319
0.000325624
0.000308666
0.000307274
0.000311023
0.000309262
0.00034267
0.00056423
0.00202592
0.00221449
0.00205495
0.00207951
0.00204904
0.00205394
0.00204895
0.0020397
0.00206376
0.00205803
0.00217175
0.00232009
0.00214013
0.00216585
0.00213126
0.00213517
0.00212772
0.00211731
0.00214241
0.00214313
0.00225443
0.00215042
0.00049134
0.000343285
0.000325949
0.000324774
0.000329368
0.000327571
0.000367892
0.000618648
0.00209414
0.00215538
0.000326582
0.000148443
0.000119589
0.000113226
0.000115337
0.000124445
0.000169768
0.000434086
0.00212427
0.00212544
0.000299028
0.000114605
8.04731e-05
7.2433e-05
7.42665e-05
8.65902e-05
0.000138725
0.000417855
0.00208949
0.0021362
0.000296023
0.000107102
7.10315e-05
6.2307e-05
6.40728e-05
7.73041e-05
0.000131309
0.000414081
0.00210052
0.0021362
0.000296023
0.000107102
7.10314e-05
6.2307e-05
6.40727e-05
7.73041e-05
0.000131309
0.00041408
0.00210052
0.00212544
0.000299027
0.000114605
8.04731e-05
7.2433e-05
7.42664e-05
8.65901e-05
0.000138725
0.000417855
0.00208949
0.00215538
0.000326581
0.000148443
0.000119589
0.000113226
0.000115337
0.000124445
0.000169768
0.000434086
0.00212427
0.00215042
0.000491339
0.000343285
0.000325949
0.000324774
0.000329368
0.000327571
0.000367892
0.000618647
0.00209414
0.00232009
0.00214013
0.00216585
0.00213126
0.00213517
0.00212772
0.00211731
0.00214241
0.00214313
0.00225443
0.00242679
0.00222732
0.00225268
0.00221386
0.00221576
0.00220498
0.00219336
0.00221881
0.00222812
0.00232783
0.002234
0.000509961
0.000360904
0.000343542
0.000342757
0.00034826
0.000346897
0.000396364
0.000683074
0.00215553
0.00223499
0.000340353
0.00015653
0.000126888
0.000120496
0.000123266
0.000134002
0.00018784
0.000491297
0.00218856
0.00220189
0.000311132
0.000120407
8.53423e-05
7.72019e-05
7.96971e-05
9.42137e-05
0.000155509
0.000476109
0.00214994
0.00221384
0.000308
0.000112377
7.51928e-05
6.63232e-05
6.87419e-05
8.42772e-05
0.000147602
0.000471657
0.00216233
0.00221384
0.000308
0.000112377
7.51928e-05
6.63232e-05
6.87419e-05
8.42772e-05
0.000147602
0.000471656
0.00216233
0.00220189
0.000311132
0.000120407
8.53422e-05
7.72019e-05
7.9697e-05
9.42136e-05
0.000155509
0.000476109
0.00214994
0.00223499
0.000340353
0.00015653
0.000126888
0.000120496
0.000123266
0.000134002
0.00018784
0.000491297
0.00218856
0.002234
0.000509961
0.000360904
0.000343542
0.000342757
0.00034826
0.000346897
0.000396364
0.000683074
0.00215553
0.00242679
0.00222732
0.00225268
0.00221386
0.00221576
0.00220498
0.00219336
0.00221881
0.00222812
0.00232783
0.00253507
0.00231752
0.00234047
0.00229717
0.00229567
0.00228051
0.00226753
0.00229278
0.00231191
0.00238795
0.00231508
0.000528022
0.000379487
0.000362514
0.000362303
0.000368729
0.000368541
0.000430573
0.00076277
0.00220716
0.0023115
0.00035424
0.000165932
0.000135833
0.000129564
0.000133124
0.000146026
0.000211787
0.000564662
0.00224298
0.00227543
0.000323417
0.000127573
9.19397e-05
8.38638e-05
8.72022e-05
0.000104565
0.000178676
0.00055151
0.00220077
0.00228847
0.000320212
0.000119065
8.11255e-05
7.2269e-05
7.55233e-05
9.40251e-05
0.000170276
0.000546191
0.00221446
0.00228847
0.000320212
0.000119065
8.11255e-05
7.22689e-05
7.55233e-05
9.4025e-05
0.000170276
0.00054619
0.00221446
0.00227543
0.000323416
0.000127573
9.19397e-05
8.38638e-05
8.72021e-05
0.000104565
0.000178676
0.00055151
0.00220077
0.0023115
0.00035424
0.000165931
0.000135833
0.000129564
0.000133124
0.000146026
0.000211787
0.000564662
0.00224298
0.00231508
0.000528022
0.000379487
0.000362514
0.000362303
0.000368729
0.00036854
0.000430572
0.00076277
0.00220716
0.00253507
0.00231752
0.00234047
0.00229717
0.00229567
0.00228051
0.00226753
0.00229278
0.00231191
0.00238795
0.00264578
0.0024121
0.00242991
0.00238157
0.00237481
0.00235406
0.00233947
0.00236434
0.00239223
0.00242912
0.00239236
0.000547232
0.000400858
0.000384656
0.000385112
0.000392345
0.000394525
0.000474551
0.000865291
0.00224493
0.00238409
0.000369837
0.000178318
0.000148003
0.000141892
0.000146279
0.000162175
0.00024545
0.000660919
0.00228345
0.00234546
0.00033746
0.000137839
0.000101911
9.39294e-05
9.82158e-05
0.000119434
0.000212345
0.000651128
0.00223799
0.00235955
0.000334283
0.000128954
9.05137e-05
8.16772e-05
8.58651e-05
0.000108339
0.000203394
0.000644623
0.00225293
0.00235955
0.000334283
0.000128954
9.05137e-05
8.16771e-05
8.58651e-05
0.000108339
0.000203394
0.000644622
0.00225293
0.00234546
0.000337459
0.000137839
0.000101911
9.39294e-05
9.82158e-05
0.000119434
0.000212345
0.000651128
0.00223799
0.00238409
0.000369837
0.000178318
0.000148003
0.000141892
0.000146279
0.000162174
0.00024545
0.000660918
0.00228345
0.00239236
0.000547231
0.000400858
0.000384656
0.000385112
0.000392344
0.000394525
0.000474551
0.000865291
0.00224493
0.00264578
0.0024121
0.00242991
0.00238157
0.00237481
0.00235406
0.00233947
0.00236434
0.00239223
0.00242912
0.00276035
0.00251289
0.00252187
0.00246745
0.00245302
0.00242536
0.00240891
0.00243348
0.00246481
0.00244318
0.0024643
0.000571203
0.000428417
0.000413001
0.000413837
0.000421454
0.000428068
0.000535049
0.00100227
0.00226312
0.00245261
0.000390828
0.000197156
0.000166393
0.000160013
0.000164903
0.000185218
0.000295283
0.00078996
0.00230427
0.00241253
0.000357075
0.000154991
0.000118527
0.000110126
0.000115104
0.000141849
0.00026344
0.000785354
0.0022561
0.0024279
0.000354189
0.000146004
0.000106762
9.73576e-05
0.000102185
0.000130251
0.000253746
0.000777087
0.00227226
0.0024279
0.000354189
0.000146004
0.000106762
9.73575e-05
0.000102185
0.000130251
0.000253746
0.000777087
0.00227226
0.00241253
0.000357075
0.000154991
0.000118527
0.000110126
0.000115104
0.000141849
0.00026344
0.000785355
0.0022561
0.00245261
0.000390828
0.000197156
0.000166393
0.000160013
0.000164903
0.000185218
0.000295283
0.00078996
0.00230427
0.0024643
0.000571202
0.000428416
0.000413001
0.000413837
0.000421454
0.000428067
0.000535048
0.00100226
0.00226312
0.00276035
0.00251289
0.00252187
0.00246745
0.00245302
0.00242536
0.00240891
0.00243348
0.00246481
0.00244318
0.00288087
0.00262191
0.00261736
0.00255502
0.00252992
0.00249408
0.00247572
0.00249939
0.0025221
0.00241809
0.0025296
0.000608181
0.000468418
0.000452644
0.000452504
0.000459487
0.000474503
0.000623193
0.00119304
0.00225371
0.00251965
0.000426674
0.000229788
0.000196715
0.000188175
0.000192311
0.000219902
0.00037177
0.000967803
0.00229765
0.0024815
0.000392558
0.000187565
0.00014837
0.000137268
0.00014165
0.000177035
0.000343127
0.000970934
0.00224772
0.00249929
0.000390838
0.000179332
0.000136843
0.000124349
0.000128387
0.000164948
0.000332224
0.000959821
0.00226504
0.00249929
0.000390838
0.000179332
0.000136843
0.000124349
0.000128387
0.000164948
0.000332224
0.00095982
0.00226504
0.0024815
0.000392558
0.000187565
0.00014837
0.000137268
0.000141649
0.000177034
0.000343127
0.000970935
0.00224772
0.00251965
0.000426674
0.000229788
0.000196715
0.000188175
0.000192311
0.000219902
0.00037177
0.000967803
0.00229765
0.0025296
0.000608181
0.000468417
0.000452644
0.000452504
0.000459487
0.000474502
0.000623192
0.00119304
0.00225371
0.00288087
0.00262191
0.00261736
0.00255502
0.00252992
0.00249408
0.00247572
0.00249939
0.0025221
0.00241809
0.00301136
0.00274215
0.0027174
0.00264404
0.00260479
0.00255978
0.00253952
0.00255847
0.00255188
0.00233599
0.00259353
0.00067874
0.000533577
0.00051224
0.000506964
0.0005115
0.000543271
0.000758067
0.00147145
0.00220565
0.00260412
0.000505246
0.000293538
0.000250157
0.000233194
0.000233457
0.00027481
0.00049218
0.00122215
0.00225354
0.00258006
0.000476504
0.000256634
0.000204963
0.00018348
0.000183728
0.000234353
0.000469739
0.00123624
0.0022036
0.00260549
0.000479647
0.000251761
0.000195289
0.000171289
0.000170555
0.000221628
0.000456594
0.00122034
0.00222204
0.00260549
0.000479646
0.000251761
0.000195288
0.000171289
0.000170555
0.000221628
0.000456594
0.00122034
0.00222204
0.00258006
0.000476503
0.000256634
0.000204963
0.00018348
0.000183728
0.000234352
0.000469739
0.00123624
0.0022036
0.00260412
0.000505245
0.000293538
0.000250157
0.000233194
0.000233456
0.00027481
0.00049218
0.00122215
0.00225354
0.00259353
0.000678739
0.000533577
0.000512239
0.000506963
0.000511499
0.000543271
0.000758066
0.00147145
0.00220565
0.00301136
0.00274215
0.0027174
0.00264404
0.00260479
0.00255978
0.00253952
0.00255847
0.00255189
0.00233599
0.00315466
0.00287481
0.00282219
0.00273329
0.00267627
0.00262158
0.00259826
0.00260134
0.0025355
0.0021697
0.00267832
0.000843033
0.000643669
0.000605167
0.000584867
0.000585541
0.000651973
0.000974622
0.00190021
0.00210326
0.00278939
0.000725613
0.000422928
0.000346787
0.000304568
0.000295837
0.00036599
0.000686731
0.00160474
0.00215963
0.00283318
0.000733138
0.000407947
0.000313753
0.000260771
0.000250278
0.000330926
0.000674707
0.00163266
0.00211307
0.00289076
0.000757852
0.000414128
0.000309823
0.000251127
0.000237818
0.00031694
0.000657291
0.00160897
0.00213255
0.00289076
0.000757851
0.000414128
0.000309823
0.000251127
0.000237818
0.00031694
0.00065729
0.00160896
0.00213255
0.00283318
0.000733137
0.000407947
0.000313752
0.000260771
0.000250278
0.000330926
0.000674707
0.00163266
0.00211307
0.00278939
0.000725613
0.000422928
0.000346787
0.000304568
0.000295837
0.000365989
0.00068673
0.00160474
0.00215963
0.00267832
0.000843032
0.000643668
0.000605167
0.000584866
0.00058554
0.000651972
0.00097462
0.00190021
0.00210326
0.00315466
0.00287481
0.00282219
0.00273329
0.00267627
0.00262158
0.00259826
0.00260134
0.0025355
0.0021697
0.00332289
0.00303106
0.0029315
0.00282003
0.00274181
0.00267701
0.00264467
0.00260969
0.00244605
0.00187591
0.00295118
0.00139622
0.000852333
0.000753643
0.000695486
0.000696799
0.000834448
0.00134006
0.00259522
0.00192315
0.00348109
0.00161311
0.000724524
0.000522568
0.000413491
0.000392421
0.000523619
0.00101038
0.00220689
0.00200177
0.00381383
0.00182094
0.000783901
0.000521285
0.000384205
0.000355766
0.000497853
0.00101247
0.00224329
0.00196569
0.00400465
0.00194451
0.000824624
0.000531283
0.000380257
0.000344489
0.000481089
0.000987656
0.00220942
0.00198619
0.00400465
0.00194451
0.000824624
0.000531283
0.000380257
0.000344488
0.000481088
0.000987656
0.00220941
0.00198619
0.00381382
0.00182094
0.000783901
0.000521285
0.000384205
0.000355766
0.000497853
0.00101247
0.00224329
0.00196569
0.00348109
0.00161311
0.000724523
0.000522568
0.00041349
0.00039242
0.000523618
0.00101038
0.00220689
0.00200177
0.00295118
0.00139622
0.000852332
0.000753642
0.000695485
0.000696797
0.000834447
0.00134006
0.00259521
0.00192315
0.00332289
0.00303106
0.0029315
0.00282003
0.00274181
0.00267701
0.00264467
0.00260969
0.00244605
0.00187591
0.0034915
0.00320254
0.00303911
0.00289806
0.00279619
0.0027187
0.00266162
0.00255632
0.00225123
0.00138538
0.0027414
0.0023513
0.00122377
0.000968922
0.000850777
0.000878219
0.00115891
0.00199077
0.00376965
0.00163181
0.00334488
0.00329313
0.00132686
0.000794566
0.000568402
0.000549628
0.000804317
0.00156484
0.0031781
0.00176668
0.00375137
0.00391177
0.00155074
0.000852277
0.00056433
0.000526357
0.000789562
0.00157269
0.00317439
0.00175704
0.00397283
0.00421991
0.00166374
0.000887306
0.000569556
0.000515738
0.000767614
0.0015376
0.00313279
0.00177924
0.00397283
0.00421991
0.00166374
0.000887306
0.000569556
0.000515738
0.000767613
0.0015376
0.00313279
0.00177924
0.00375137
0.00391176
0.00155074
0.000852277
0.000564329
0.000526357
0.000789563
0.0015727
0.0031744
0.00175704
0.00334488
0.00329312
0.00132685
0.000794565
0.000568401
0.000549627
0.000804315
0.00156484
0.0031781
0.00176668
0.0027414
0.0023513
0.00122377
0.000968921
0.000850775
0.000878217
0.00115891
0.00199076
0.00376965
0.00163181
0.0034915
0.00320254
0.00303911
0.00289806
0.00279619
0.00271871
0.00266162
0.00255632
0.00225123
0.00138539
0.00364484
0.00335644
0.00312759
0.00295451
0.00282896
0.00273088
0.00262618
0.00242674
0.00196905
0.000682978
0.0032145
0.00331444
0.00167989
0.0012265
0.00107668
0.00120623
0.00177279
0.00320509
0.00576696
0.00121312
0.00453517
0.00488212
0.00203009
0.00110094
0.000776297
0.000826211
0.0013164
0.00253741
0.00473859
0.00145379
0.00544244
0.00587038
0.00243997
0.00122995
0.000801447
0.00081289
0.00129487
0.00248217
0.00449813
0.00150157
0.00587804
0.00633136
0.00263179
0.0012951
0.000816309
0.000800261
0.00126366
0.00243132
0.00444188
0.00153118
0.00587804
0.00633136
0.00263179
0.0012951
0.000816309
0.000800261
0.00126366
0.00243132
0.00444188
0.00153118
0.00544243
0.00587038
0.00243997
0.00122995
0.000801446
0.00081289
0.00129487
0.00248217
0.00449813
0.00150157
0.00453516
0.00488211
0.00203009
0.00110094
0.000776295
0.000826209
0.0013164
0.00253741
0.00473858
0.00145379
0.0032145
0.00331443
0.00167989
0.0012265
0.00107668
0.00120623
0.00177279
0.00320508
0.00576695
0.00121312
0.00364484
0.00335644
0.00312759
0.00295452
0.00282896
0.00273088
0.00262618
0.00242674
0.00196905
0.000682981
0.00376856
0.00344907
0.00317073
0.00297161
0.00282477
0.00269637
0.00253543
0.0022674
0.00177699
0.000655822
0.00479801
0.00389015
0.0020615
0.00152649
0.00145949
0.00185476
0.00298568
0.0054387
0.00870205
0.00119184
0.00730982
0.00560261
0.00247818
0.00138099
0.00108738
0.00134765
0.00226479
0.00424031
0.00712719
0.00126894
0.00904952
0.00680305
0.00300875
0.00156669
0.00112508
0.00130895
0.00214278
0.0038712
0.00614897
0.00129738
0.00983112
0.00734857
0.00325451
0.00165748
0.00114396
0.00128514
0.0020829
0.00375641
0.00595201
0.00131706
0.00983111
0.00734857
0.00325451
0.00165748
0.00114396
0.00128514
0.0020829
0.00375641
0.00595201
0.00131706
0.00904951
0.00680305
0.00300875
0.00156669
0.00112508
0.00130895
0.00214278
0.0038712
0.00614896
0.00129738
0.0073098
0.0056026
0.00247818
0.00138099
0.00108738
0.00134764
0.00226478
0.0042403
0.00712716
0.00126894
0.00479799
0.00389014
0.0020615
0.00152649
0.00145948
0.00185476
0.00298567
0.00543868
0.00870202
0.00119183
0.00376856
0.00344907
0.00317074
0.00297161
0.00282478
0.00269637
0.00253543
0.00226741
0.00177699
0.00065582
0.00381602
0.00344445
0.00314748
0.0029349
0.00277016
0.00260994
0.00240951
0.00212093
0.00162074
0.000869187
0.00611288
0.00399763
0.00239823
0.00200229
0.00222684
0.00317798
0.00528782
0.00884525
0.0102066
0.00141874
0.00892931
0.0054124
0.00266742
0.00171592
0.00165715
0.00232877
0.00393267
0.00683239
0.00932935
0.00154019
0.0111056
0.00668233
0.00324797
0.00191449
0.00164492
0.00214562
0.00345657
0.00571243
0.0076315
0.00138243
0.0120892
0.00727437
0.00352871
0.00202051
0.00165188
0.00207894
0.00329536
0.00537374
0.00705711
0.00128196
0.0120892
0.00727437
0.00352871
0.00202051
0.00165188
0.00207894
0.00329536
0.00537373
0.00705711
0.00128196
0.0111055
0.00668233
0.00324796
0.00191449
0.00164492
0.00214562
0.00345656
0.00571242
0.00763148
0.00138243
0.00892931
0.0054124
0.00266742
0.00171592
0.00165714
0.00232877
0.00393266
0.00683236
0.00932932
0.00154018
0.00611286
0.00399762
0.00239822
0.00200228
0.00222683
0.00317796
0.00528779
0.00884521
0.0102066
0.00141873
0.00381602
0.00344445
0.00314748
0.0029349
0.00277016
0.00260994
0.00240952
0.00212093
0.00162074
0.000869184
0.00371807
0.00333484
0.00305059
0.00283677
0.00266005
0.00248295
0.00227856
0.00201489
0.00164244
0.00111096
0.0061495
0.00401475
0.0029969
0.00301445
0.00383066
0.00568301
0.00875637
0.0113704
0.00640337
0.0014863
0.00831433
0.00486213
0.0028969
0.00235506
0.0027327
0.00400207
0.00636855
0.00936467
0.00840608
0.00169298
0.0104794
0.00608493
0.00344581
0.00246452
0.00251515
0.00340475
0.00513089
0.00736187
0.00747951
0.00153083
0.0115425
0.00671164
0.00375471
0.00256902
0.00247388
0.00321985
0.00473163
0.00666149
0.00688508
0.00138479
0.0115425
0.00671164
0.00375471
0.00256902
0.00247388
0.00321985
0.00473162
0.00666148
0.00688508
0.00138479
0.0104794
0.00608493
0.00344581
0.00246452
0.00251514
0.00340475
0.00513088
0.00736186
0.0074795
0.00153082
0.00831433
0.00486212
0.0028969
0.00235505
0.00273269
0.00400205
0.00636852
0.00936463
0.00840607
0.00169298
0.00614948
0.00401474
0.00299689
0.00301444
0.00383064
0.00568298
0.00875633
0.0113703
0.00640341
0.0014863
0.00371807
0.00333484
0.00305059
0.00283677
0.00266005
0.00248295
0.00227856
0.00201488
0.00164244
0.00111096
0.00351801
0.00317463
0.00291899
0.0027223
0.00256705
0.00244265
0.00239347
0.00236748
0.0019447
0.00145017
0.00601379
0.00473541
0.00448547
0.00514456
0.00667091
0.008963
0.0107864
0.0086165
0.00289478
0.00176055
0.00715974
0.00475622
0.00363938
0.00361651
0.00447833
0.00620246
0.0084691
0.00922871
0.00531116
0.00198469
0.00909015
0.00582736
0.00403454
0.00347165
0.00382824
0.00493658
0.00654856
0.00762846
0.00577008
0.0019897
0.0101991
0.00650894
0.00438173
0.00355941
0.00369228
0.00455737
0.00587565
0.00683846
0.00559713
0.00195475
0.0101991
0.00650894
0.00438173
0.0035594
0.00369228
0.00455737
0.00587564
0.00683845
0.00559713
0.00195475
0.00909015
0.00582736
0.00403454
0.00347164
0.00382824
0.00493657
0.00654855
0.00762844
0.00577007
0.00198969
0.00715974
0.00475621
0.00363937