/*--------------------------------*- C++ -*----------------------------------*\
  =========                 |
  \\      /  F ield         | OpenFOAM: The Open Source CFD Toolbox
   \\    /   O peration     | Website:  https://openfoam.org
    \\  /    A nd           | Version:  9
     \\/     M anipulation  |
\*---------------------------------------------------------------------------*/
FoamFile
{
    format      ascii;
    class       volScalarField;
    location    "5";
    object      k;
}
// * * * * * * * * * * * * * * * * * * * * * * * * * * * * * * * * * * * * * //

dimensions      [0 2 -2 0 0 0 0];

internalField   nonuniform List<scalar> 
36000
(
0.00062012
0.000620058
0.00061973
0.000619633
0.000619625
0.000619619
0.000619648
0.00061972
0.000620073
0.000620118
0.00062006
0.000624396
0.000615568
0.000613519
0.00061341
0.000613312
0.000613818
0.000615387
0.000624742
0.000620072
0.000619722
0.000615407
0.000604946
0.000603099
0.000602564
0.000602457
0.000603236
0.00060466
0.000615601
0.00061973
0.000619637
0.000613586
0.000603313
0.000601044
0.000600637
0.000600532
0.000601235
0.000603025
0.000613829
0.000619648
0.00061962
0.000613315
0.000602729
0.000600555
0.000600071
0.000599961
0.000600723
0.000602425
0.000613529
0.00061963
0.00061962
0.000613315
0.000602729
0.000600555
0.000600071
0.000599961
0.000600723
0.000602425
0.000613529
0.00061963
0.000619637
0.000613586
0.000603313
0.000601044
0.000600637
0.000600532
0.000601235
0.000603024
0.000613828
0.000619648
0.000619722
0.000615407
0.000604947
0.000603099
0.000602564
0.000602457
0.000603235
0.00060466
0.0006156
0.00061973
0.00062006
0.000624396
0.000615568
0.00061352
0.00061341
0.000613312
0.000613818
0.000615387
0.000624742
0.000620072
0.00062012
0.000620058
0.00061973
0.000619633
0.000619625
0.000619619
0.000619648
0.00061972
0.000620073
0.000620118
0.000648176
0.000646379
0.000645895
0.000645562
0.000645557
0.000645542
0.000645601
0.000645869
0.00064642
0.000648157
0.000646385
0.000638936
0.000622558
0.000620622
0.000619439
0.000619311
0.000621312
0.000622521
0.000639852
0.000646415
0.000645869
0.000622296
0.000607768
0.0006057
0.000604195
0.000604046
0.000606014
0.000607566
0.000622822
0.000645897
0.000645567
0.000620647
0.000605867
0.000602578
0.000601219
0.000601147
0.000602996
0.000605773
0.000621249
0.000645602
0.000645539
0.000619163
0.000604282
0.000601135
0.000599633
0.000599539
0.000601473
0.000604145
0.000619692
0.00064557
0.000645539
0.000619163
0.000604282
0.000601134
0.000599633
0.000599539
0.000601473
0.000604145
0.000619692
0.00064557
0.000645567
0.000620647
0.000605867
0.000602577
0.000601219
0.000601147
0.000602996
0.000605773
0.000621249
0.000645602
0.000645869
0.000622296
0.000607768
0.0006057
0.000604195
0.000604046
0.000606014
0.000607566
0.000622822
0.000645897
0.000646385
0.000638936
0.000622558
0.000620623
0.000619439
0.000619311
0.000621312
0.000622521
0.000639852
0.000646415
0.000648176
0.000646379
0.000645895
0.000645563
0.000645557
0.000645542
0.000645601
0.000645869
0.00064642
0.000648157
0.00067736
0.000672305
0.000672283
0.000671477
0.000671567
0.000671541
0.000671522
0.000672233
0.000672341
0.000677296
0.000672309
0.000641437
0.000626757
0.000623061
0.000621467
0.000621397
0.00062395
0.000626977
0.00064245
0.000672344
0.00067223
0.000626544
0.000613405
0.000609683
0.000607568
0.000607519
0.000610112
0.000613401
0.000627113
0.000672276
0.000671473
0.000623026
0.000609659
0.000603638
0.000601524
0.000601637
0.000604217
0.000609959
0.000623699
0.000671528
0.000671529
0.000621085
0.000607471
0.000601491
0.000599236
0.000599316
0.000601945
0.000607681
0.000621632
0.000671578
0.000671529
0.000621085
0.000607471
0.000601491
0.000599236
0.000599316
0.000601945
0.000607681
0.000621632
0.000671578
0.000671473
0.000623026
0.000609658
0.000603637
0.000601524
0.000601637
0.000604217
0.000609959
0.000623699
0.000671528
0.00067223
0.000626544
0.000613405
0.000609682
0.000607568
0.000607518
0.000610111
0.000613401
0.000627113
0.000672276
0.000672309
0.000641437
0.000626757
0.000623061
0.000621467
0.000621397
0.00062395
0.000626977
0.00064245
0.000672344
0.00067736
0.000672305
0.000672283
0.000671477
0.000671567
0.000671541
0.000671522
0.000672233
0.000672341
0.000677296
0.000707017
0.000698005
0.000698704
0.000697178
0.00069747
0.000697434
0.000697187
0.000698619
0.000697974
0.000706865
0.000697973
0.000640542
0.000630156
0.000623921
0.000622531
0.000622594
0.000624795
0.000630561
0.000641201
0.000697943
0.000698611
0.000630179
0.000617945
0.000613118
0.0006105
0.000610695
0.000613536
0.000618326
0.000630249
0.000698677
0.00069715
0.000623903
0.000612799
0.000604365
0.00060181
0.00060223
0.000604986
0.000613656
0.000624188
0.00069724
0.000697413
0.000622248
0.000610179
0.000601883
0.00059914
0.00059953
0.000602369
0.000610883
0.000622369
0.000697496
0.000697413
0.000622248
0.000610178
0.000601883
0.000599139
0.00059953
0.000602369
0.000610883
0.000622369
0.000697496
0.00069715
0.000623902
0.000612798
0.000604364
0.000601809
0.00060223
0.000604986
0.000613655
0.000624188
0.00069724
0.000698611
0.000630179
0.000617946
0.000613117
0.0006105
0.000610695
0.000613535
0.000618326
0.000630248
0.000698677
0.000697973
0.000640542
0.000630155
0.000623921
0.000622531
0.000622594
0.000624795
0.00063056
0.000641201
0.000697943
0.000707017
0.000698005
0.000698704
0.000697178
0.000697471
0.000697434
0.000697187
0.000698619
0.000697974
0.000706865
0.000736792
0.000723359
0.000724981
0.000722615
0.000723176
0.000723122
0.000722536
0.00072483
0.000723237
0.000736457
0.000723365
0.000639377
0.000632086
0.000624215
0.000623042
0.000623283
0.000624909
0.000632577
0.000639629
0.000723056
0.000724825
0.000632522
0.000620298
0.000615181
0.000612156
0.000612679
0.000615549
0.000621244
0.000631743
0.000724898
0.000722522
0.00062427
0.000614458
0.000604981
0.000602107
0.000602868
0.000605578
0.000615892
0.000623967
0.000722547
0.000723074
0.000623031
0.000611558
0.000602301
0.00059921
0.000599959
0.000602778
0.000612785
0.000622516
0.000723083
0.000723074
0.000623031
0.000611557
0.000602301
0.00059921
0.000599959
0.000602778
0.000612785
0.000622516
0.000723083
0.000722522
0.00062427
0.000614456
0.000604981
0.000602107
0.000602867
0.000605577
0.000615892
0.000623967
0.000722547
0.000724825
0.000632522
0.000620299
0.00061518
0.000612156
0.000612678
0.000615549
0.000621243
0.000631743
0.000724898
0.000723365
0.000639377
0.000632086
0.000624216
0.000623042
0.000623283
0.000624909
0.000632577
0.000639629
0.000723056
0.000736792
0.000723359
0.000724981
0.000722615
0.000723176
0.000723122
0.000722536
0.00072483
0.000723237
0.000736457
0.000766593
0.00074839
0.000751056
0.000747703
0.000748526
0.000748419
0.000747492
0.000750731
0.000748245
0.000765839
0.000748539
0.000638342
0.000632879
0.000624332
0.000623252
0.000623711
0.000624742
0.00063332
0.000638223
0.00074773
0.000750811
0.000633774
0.000621098
0.000615979
0.000612668
0.000613536
0.000616331
0.000622498
0.000632056
0.000750682
0.000747623
0.00062444
0.000614897
0.000605449
0.000602324
0.000603405
0.000605994
0.000616687
0.000623482
0.000747332
0.000748506
0.000623583
0.000611889
0.000602629
0.000599319
0.000600405
0.000603087
0.000613446
0.000622307
0.000748197
0.000748505
0.000623583
0.000611888
0.000602629
0.000599319
0.000600405
0.000603087
0.000613446
0.000622307
0.000748197
0.000747623
0.000624439
0.000614896
0.000605448
0.000602324
0.000603405
0.000605994
0.000616687
0.000623482
0.000747332
0.000750811
0.000633774
0.000621098
0.000615978
0.000612667
0.000613536
0.000616331
0.000622497
0.000632056
0.000750682
0.000748539
0.000638341
0.000632878
0.000624332
0.000623252
0.000623711
0.000624742
0.000633319
0.000638223
0.00074773
0.000766593
0.00074839
0.000751056
0.000747703
0.000748526
0.000748419
0.000747492
0.000750731
0.000748245
0.000765839
0.00079638
0.000773108
0.000776817
0.000772438
0.00077351
0.000773311
0.000772027
0.000776188
0.000773039
0.000794858
0.000773562
0.00063718
0.000632877
0.000624186
0.000623084
0.000623785
0.000624269
0.000633049
0.000636846
0.000771929
0.000776515
0.000634228
0.00062078
0.000615841
0.000612351
0.000613565
0.000616192
0.000622383
0.0006314
0.000775955
0.000772437
0.00062446
0.000614503
0.000605751
0.000602473
0.000603846
0.000606236
0.000616366
0.000622709
0.000771557
0.000773672
0.000623955
0.00061151
0.000602875
0.00059948
0.000600862
0.000603303
0.000613126
0.0006217
0.000772779
0.000773672
0.000623955
0.00061151
0.000602875
0.000599479
0.000600862
0.000603302
0.000613126
0.0006217
0.000772779
0.000772437
0.000624459
0.000614502
0.000605751
0.000602472
0.000603845
0.000606235
0.000616365
0.000622709
0.000771557
0.000776515
0.000634228
0.000620779
0.000615841
0.00061235
0.000613564
0.000616191
0.000622383
0.000631399
0.000775955
0.000773562
0.00063718
0.000632876
0.000624186
0.000623084
0.000623785
0.000624269
0.000633049
0.000636846
0.000771929
0.00079638
0.000773108
0.000776817
0.000772438
0.00077351
0.000773311
0.000772028
0.000776188
0.000773039
0.000794858
0.00082607
0.000797531
0.000802241
0.000796811
0.000798095
0.000797746
0.000796106
0.000801124
0.000797637
0.000823293
0.000798473
0.000635711
0.00063214
0.000623707
0.000622495
0.000623471
0.000623424
0.000631844
0.000635502
0.000795556
0.000801845
0.000634051
0.000619667
0.000615135
0.000611562
0.00061311
0.000615438
0.000621197
0.000629956
0.000800598
0.000796886
0.000624312
0.000613581
0.000605972
0.000602675
0.000604308
0.000606377
0.000615268
0.000621698
0.00079512
0.000798485
0.000624129
0.000610701
0.000603153
0.000599827
0.000601453
0.000603507
0.000612113
0.00062074
0.000796718
0.000798485
0.000624129
0.000610701
0.000603153
0.000599827
0.000601453
0.000603507
0.000612113
0.00062074
0.000796718
0.000796886
0.000624311
0.00061358
0.000605971
0.000602675
0.000604308
0.000606377
0.000615267
0.000621697
0.00079512
0.000801845
0.000634051
0.000619667
0.000615134
0.000611562
0.000613109
0.000615438
0.000621197
0.000629956
0.000800598
0.000798473
0.000635711
0.00063214
0.000623707
0.000622495
0.000623471
0.000623424
0.000631843
0.000635502
0.000795556
0.00082607
0.000797531
0.000802241
0.000796811
0.000798095
0.000797746
0.000796106
0.000801124
0.000797637
0.000823294
0.000855577
0.000821685
0.000827305
0.000820815
0.000822247
0.000821666
0.000819681
0.000825451
0.000822047
0.000850869
0.000823319
0.00063391
0.000630826
0.000622958
0.000621564
0.000622853
0.000622268
0.000629871
0.000634446
0.000818465
0.000826707
0.000633437
0.000618125
0.000614235
0.000610686
0.000612545
0.000614393
0.000619275
0.000628074
0.000824451
0.000820876
0.000624046
0.000612449
0.00060631
0.000603178
0.000605028
0.000606591
0.000613684
0.000620717
0.000817881
0.000822844
0.000624162
0.000609782
0.000603697
0.000600631
0.000602425
0.000603881
0.000610689
0.000619697
0.000819862
0.000822844
0.000624162
0.000609782
0.000603697
0.000600631
0.000602425
0.000603881
0.000610688
0.000619697
0.000819862
0.000820876
0.000624046
0.000612448
0.000606309
0.000603177
0.000605027
0.000606591
0.000613684
0.000620717
0.000817881
0.000826707
0.000633437
0.000618125
0.000614235
0.000610686
0.000612545
0.000614393
0.000619275
0.000628074
0.000824451
0.000823319
0.00063391
0.000630825
0.000622958
0.000621564
0.000622852
0.000622268
0.000629871
0.000634446
0.000818464
0.000855577
0.000821685
0.000827304
0.000820815
0.000822247
0.000821666
0.000819681
0.000825451
0.000822047
0.000850869
0.000884856
0.000845627
0.000852006
0.000844463
0.000845943
0.000845019
0.00084271
0.000849083
0.000846279
0.000877268
0.000848057
0.00063198
0.000629183
0.000622102
0.000620473
0.000622112
0.000620936
0.000627359
0.000634138
0.000840453
0.000851015
0.000632653
0.000616577
0.000613562
0.000610164
0.000612292
0.000613416
0.000616912
0.000626299
0.000847314
0.000844328
0.000623824
0.000611514
0.000607151
0.000604408
0.0006064
0.000607164
0.000611873
0.000620255
0.000839659
0.000846657
0.000624234
0.000609185
0.00060493
0.000602361
0.000604215
0.000604732
0.000609104
0.000619068
0.000842022
0.000846657
0.000624233
0.000609185
0.00060493
0.000602361
0.000604214
0.000604732
0.000609104
0.000619068
0.000842022
0.000844328
0.000623823
0.000611513
0.000607151
0.000604407
0.0006064
0.000607164
0.000611873
0.000620254
0.000839659
0.000851015
0.000632653
0.000616577
0.000613561
0.000610164
0.000612292
0.000613415
0.000616911
0.000626298
0.000847314
0.000848057
0.00063198
0.000629183
0.000622102
0.000620473
0.000622112
0.000620936
0.000627359
0.000634138
0.000840453
0.000884856
0.000845627
0.000852006
0.000844463
0.000845943
0.000845019
0.00084271
0.000849083
0.000846279
0.000877268
0.000913896
0.000869458
0.000876373
0.00086779
0.000869174
0.000867766
0.000865152
0.000871941
0.000870328
0.000902101
0.00087239
0.000630343
0.00062752
0.000621386
0.000619495
0.000621514
0.000619606
0.000624538
0.000635249
0.00086125
0.000874674
0.00063204
0.000615556
0.000613677
0.000610575
0.000612885
0.000612904
0.000614355
0.000625375
0.000868919
0.000867151
0.000623927
0.000611367
0.000609181
0.000607083
0.000609071
0.000608522
0.000610094
0.000621044
0.000860207
0.000869826
0.000624657
0.000609548
0.000607609
0.000605818
0.000607537
0.000606522
0.000607607
0.000619596
0.000862941
0.000869826
0.000624657
0.000609548
0.000607609
0.000605818
0.000607537
0.000606522
0.000607607
0.000619596
0.000862941
0.000867151
0.000623926
0.000611366
0.000609181
0.000607082
0.000609071
0.000608522
0.000610094
0.000621044
0.000860207
0.000874674
0.000632039
0.000615555
0.000613676
0.000610574
0.000612885
0.000612903
0.000614354
0.000625375
0.000868919
0.00087239
0.000630343
0.00062752
0.000621386
0.000619495
0.000621514
0.000619606
0.000624538
0.000635249
0.00086125
0.000913896
0.000869458
0.000876373
0.00086779
0.000869174
0.000867766
0.000865152
0.000871941
0.000870328
0.000902101
0.000942724
0.000893323
0.000900464
0.000890852
0.000891941
0.000889865
0.00088696
0.000893957
0.000894157
0.000924852
0.000896184
0.000629245
0.000626248
0.000621188
0.000619028
0.000621426
0.0006185
0.000621676
0.00063874
0.000880477
0.000897561
0.000632073
0.000615831
0.000615445
0.000612781
0.000615078
0.000613329
0.000611851
0.000626367
0.000888903
0.000889231
0.000624835
0.000612965
0.000613577
0.0006124
0.000614072
0.000611272
0.000608644
0.000624164
0.000879173
0.000892229
0.000625949
0.000611916
0.000613056
0.000612356
0.000613546
0.000609908
0.000606482
0.000622367
0.000882266
0.000892229
0.000625949
0.000611916
0.000613056
0.000612356
0.000613546
0.000609908
0.000606482
0.000622367
0.000882266
0.00088923
0.000624834
0.000612964
0.000613577
0.0006124
0.000614071
0.000611272
0.000608644
0.000624164
0.000879173
0.000897561
0.000632073
0.00061583
0.000615444
0.00061278
0.000615078
0.000613329
0.000611851
0.000626366
0.000888903
0.000896184
0.000629245
0.000626248
0.000621188
0.000619028
0.000621426
0.0006185
0.000621676
0.00063874
0.000880477
0.000942724
0.000893323
0.000900464
0.000890852
0.000891941
0.000889865
0.00088696
0.000893957
0.000894157
0.000924852
0.000971411
0.000917422
0.000924374
0.000913723
0.000914247
0.000911278
0.000908075
0.000915084
0.000917643
0.00094482
0.000919256
0.000629101
0.000625993
0.000622109
0.000619677
0.000622362
0.000617903
0.000619171
0.00064602
0.000897603
0.000919527
0.000633529
0.00061866
0.000620278
0.000618139
0.000619981
0.000615266
0.000609724
0.000630807
0.000906748
0.000910427
0.000627403
0.000617969
0.000622365
0.000622336
0.000622985
0.000616216
0.000607929
0.000631185
0.000896051
0.000913718
0.000629029
0.000618128
0.000623573
0.000624229
0.000624025
0.000615766
0.00060612
0.000628952
0.000899489
0.000913718
0.000629028
0.000618128
0.000623573
0.000624229
0.000624025
0.000615766
0.00060612
0.000628951
0.000899489
0.000910427
0.000627402
0.000617968
0.000622364
0.000622336
0.000622985
0.000616215
0.000607928
0.000631185
0.000896051
0.000919527
0.000633529
0.00061866
0.000620278
0.000618139
0.00061998
0.000615265
0.000609723
0.000630806
0.000906748
0.000919256
0.000629101
0.000625993
0.000622109
0.000619677
0.000622362
0.000617903
0.000619171
0.000646019
0.000897603
0.000971411
0.000917422
0.000924374
0.000913723
0.000914247
0.000911278
0.000908075
0.000915084
0.000917643
0.00094482
0.0010001
0.000942027
0.000948238
0.000936504
0.000936097
0.00093197
0.000928431
0.000935311
0.000940506
0.000961018
0.000941367
0.000630681
0.000627786
0.000625131
0.000622369
0.000625029
0.000618163
0.000617703
0.000659167
0.00091188
0.000940396
0.000637801
0.000626253
0.000630554
0.000628808
0.000629179
0.000619355
0.000608511
0.000640888
0.00092172
0.000930587
0.000633251
0.000629408
0.000639052
0.000640091
0.000638116
0.0006243
0.000608617
0.000644359
0.000910118
0.000934139
0.00063564
0.000631575
0.000643181
0.000645107
0.000641581
0.000625138
0.000607166
0.000641598
0.000913889
0.000934139
0.00063564
0.000631575
0.000643181
0.000645107
0.000641581
0.000625138
0.000607166
0.000641598
0.000913889
0.000930587
0.000633251
0.000629407
0.000639052
0.000640091
0.000638116
0.0006243
0.000608617
0.000644359
0.000910118
0.000940396
0.000637801
0.000626252
0.000630554
0.000628807
0.000629179
0.000619354
0.000608511
0.000640888
0.00092172
0.000941367
0.000630681
0.000627786
0.000625131
0.000622369
0.000625029
0.000618163
0.000617703
0.000659167
0.00091188
0.0010001
0.000942027
0.000948238
0.000936504
0.000936097
0.00093197
0.000928432
0.000935311
0.000940507
0.000961018
0.00102901
0.000967485
0.000972242
0.000959305
0.00095749
0.000951903
0.000947966
0.000954673
0.000962166
0.000972033
0.000962199
0.000635487
0.000633395
0.000631857
0.000628492
0.000630324
0.000619717
0.000618546
0.000681267
0.000922254
0.000959982
0.000647623
0.000642647
0.00065031
0.000648131
0.000644745
0.000626188
0.000609262
0.000659748
0.000932773
0.000949583
0.000645684
0.000652993
0.000669703
0.000670663
0.000662502
0.000636437
0.000611935
0.000666919
0.00092035
0.000953384
0.000649367
0.000658724
0.000678874
0.000680727
0.000669655
0.000639021
0.000610799
0.000663513
0.000924443
0.000953384
0.000649366
0.000658724
0.000678874
0.000680727
0.000669654
0.000639021
0.000610798
0.000663513
0.000924443
0.000949583
0.000645683
0.000652993
0.000669703
0.000670663
0.000662502
0.000636437
0.000611934
0.000666919
0.00092035
0.000959982
0.000647623
0.000642647
0.00065031
0.000648131
0.000644744
0.000626187
0.000609262
0.000659747
0.000932773
0.000962199
0.000635486
0.000633394
0.000631857
0.000628492
0.000630324
0.000619717
0.000618546
0.000681267
0.000922254
0.00102901
0.000967485
0.000972242
0.000959305
0.00095749
0.000951903
0.000947966
0.000954673
0.000962166
0.000972033
0.0010585
0.000994252
0.00099662
0.000982232
0.000978397
0.000971029
0.000966634
0.000973195
0.000981529
0.000975778
0.000981394
0.000646506
0.000645959
0.000644894
0.000640031
0.000639234
0.00062317
0.000624164
0.000717012
0.000927229
0.000978289
0.000668699
0.00067551
0.000686399
0.000681012
0.000668911
0.000636089
0.000614124
0.00069199
0.000938433
0.000967603
0.000671875
0.000699884
0.000724673
0.000721351
0.000699453
0.000653142
0.00062025
0.000703635
0.000925309
0.000971706
0.000678099
0.000712334
0.000742582
0.000739429
0.000711988
0.000657946
0.000619295
0.0006994
0.000929722
0.000971706
0.000678099
0.000712333
0.000742582
0.000739429
0.000711988
0.000657946
0.000619295
0.000699399
0.000929722
0.000967602
0.000671874
0.000699884
0.000724673
0.000721351
0.000699452
0.000653142
0.00062025
0.000703635
0.000925309
0.000978289
0.000668699
0.00067551
0.000686398
0.000681012
0.000668911
0.000636089
0.000614124
0.00069199
0.000938433
0.000981394
0.000646505
0.000645958
0.000644894
0.000640031
0.000639234
0.00062317
0.000624164
0.000717012
0.000927229
0.0010585
0.000994252
0.00099662
0.000982232
0.000978397
0.000971029
0.000966634
0.000973195
0.000981529
0.000975779
0.00108909
0.0010228
0.00102162
0.00100534
0.00099874
0.000989287
0.000984424
0.000990688
0.000996681
0.000969088
0.000998655
0.000670336
0.000670914
0.00066831
0.00065953
0.000652582
0.000629672
0.000639108
0.000773754
0.000924656
0.000996036
0.000714357
0.000739248
0.000749953
0.000733768
0.000703121
0.000649117
0.000627271
0.000744647
0.000936634
0.000985956
0.000729248
0.000791555
0.000820664
0.00080143
0.000751188
0.000674362
0.000637971
0.000761792
0.000923016
0.000990663
0.00074123
0.00081706
0.000853393
0.000831706
0.000771088
0.000681705
0.000636904
0.000756409
0.000927752
0.000990663
0.00074123
0.00081706
0.000853393
0.000831706
0.000771088
0.000681705
0.000636904
0.000756409
0.000927752
0.000985956
0.000729247
0.000791555
0.000820664
0.00080143
0.000751188
0.000674362
0.00063797
0.000761792
0.000923015
0.000996036
0.000714357
0.000739248
0.000749953
0.000733767
0.000703121
0.000649116
0.000627271
0.000744647
0.000936634
0.000998655
0.000670335
0.000670913
0.00066831
0.00065953
0.000652582
0.000629672
0.000639108
0.000773754
0.000924656
0.00108909
0.0010228
0.00102162
0.00100534
0.00099874
0.000989287
0.000984424
0.000990689
0.000996681
0.000969088
0.00112173
0.00105384
0.00104749
0.00102855
0.00101835
0.00100658
0.00100127
0.00100624
0.00100451
0.000947026
0.00101541
0.000722225
0.000718554
0.000708295
0.000689674
0.000670755
0.000641955
0.00067132
0.000862842
0.000911464
0.00101817
0.00081908
0.000862314
0.000858231
0.000812694
0.000746432
0.000666022
0.000656182
0.000828379
0.000924608
0.00101189
0.000864877
0.000969399
0.000982686
0.000919876
0.000816547
0.000700332
0.000672838
0.00085221
0.000910898
0.00101853
0.000891862
0.00101977
0.00103941
0.000967571
0.000845637
0.000710128
0.00067113
0.000845199
0.000915972
0.00101853
0.000891862
0.00101977
0.00103941
0.000967571
0.000845636
0.000710128
0.00067113
0.000845199
0.000915972
0.00101189
0.000864877
0.000969398
0.000982686
0.000919876
0.000816547
0.000700332
0.000672837
0.00085221
0.000910897
0.00101817
0.00081908
0.000862313
0.000858231
0.000812693
0.000746432
0.000666022
0.000656182
0.000828378
0.000924608
0.00101541
0.000722224
0.000718554
0.000708295
0.000689673
0.000670755
0.000641955
0.00067132
0.000862841
0.000911464
0.00112173
0.00105384
0.00104749
0.00102855
0.00101835
0.00100658
0.00100127
0.00100624
0.00100451
0.000947027
0.00115704
0.00108756
0.00107425
0.00105157
0.0010369
0.00102272
0.00101665
0.00101745
0.00100021
0.000901531
0.00103742
0.000842072
0.000802139
0.000772394
0.00073185
0.000693952
0.000666217
0.000734097
0.00100164
0.000883033
0.00106591
0.00108015
0.00108437
0.00103159
0.000919104
0.000794049
0.000690493
0.000713385
0.000959157
0.000898741
0.00107704
0.00121306
0.00128978
0.00123855
0.00107833
0.000888619
0.000733844
0.000737624
0.000990489
0.000885776
0.00109158
0.00128091
0.00138347
0.00133121
0.00114876
0.000927747
0.000745338
0.0007345
0.000981368
0.000891212
0.00109158
0.00128091
0.00138347
0.00133121
0.00114876
0.000927747
0.000745338
0.000734499
0.000981368
0.000891212
0.00107704
0.00121306
0.00128978
0.00123855
0.00107833
0.000888618
0.000733844
0.000737624
0.00099049
0.000885776
0.00106591
0.00108015
0.00108437
0.00103159
0.000919104
0.000794049
0.000690493
0.000713385
0.000959157
0.000898741
0.00103742
0.000842072
0.000802138
0.000772394
0.00073185
0.000693951
0.000666217
0.000734097
0.00100164
0.000883033
0.00115704
0.00108756
0.00107425
0.00105157
0.0010369
0.00102272
0.00101665
0.00101745
0.00100021
0.000901531
0.00119782
0.00112662
0.00110181
0.0010737
0.00105375
0.00103708
0.00102872
0.00101962
0.000976542
0.000818193
0.00110674
0.00118584
0.000954166
0.000869712
0.000784429
0.000724354
0.000714726
0.000848776
0.00121577
0.000831872
0.00123554
0.00184382
0.00149563
0.00128952
0.00104286
0.000839354
0.000732619
0.00081841
0.00115888
0.000854394
0.00131307
0.00222714
0.001875
0.00161247
0.00126286
0.000956562
0.000784147
0.000851638
0.00119605
0.000844096
0.00135651
0.00240488
0.00204344
0.00175459
0.0013599
0.00100462
0.000795852
0.000846342
0.00118519
0.000849952
0.00135651
0.00240488
0.00204344
0.00175459
0.0013599
0.00100462
0.000795851
0.000846341
0.00118519
0.000849952
0.00131307
0.00222714
0.001875
0.00161247
0.00126286
0.000956562
0.000784147
0.000851638
0.00119606
0.000844095
0.00123554
0.00184382
0.00149563
0.00128952
0.00104286
0.000839353
0.000732618
0.000818409
0.00115888
0.000854394
0.00110674
0.00118584
0.000954166
0.000869711
0.000784429
0.000724353
0.000714726
0.000848775
0.00121577
0.000831872
0.00119782
0.00112662
0.00110181
0.0010737
0.00105375
0.00103708
0.00102872
0.00101962
0.000976543
0.000818193
0.00123801
0.00116872
0.00112861
0.00109342
0.00106764
0.00104783
0.00103311
0.00100568
0.000923976
0.00066849
0.00124118
0.0016952
0.0011937
0.000991027
0.000842395
0.000771117
0.000809697
0.00104987
0.00154135
0.00074558
0.00167166
0.00300981
0.0021202
0.00159018
0.0011556
0.000882096
0.000812767
0.000999938
0.00145418
0.000786116
0.0019463
0.00378186
0.00274648
0.00204352
0.00143278
0.00101481
0.000871034
0.00104044
0.00148508
0.000783253
0.00207474
0.00412556
0.00301948
0.00224133
0.00155527
0.00106805
0.000881301
0.00103313
0.00147503
0.000789836
0.00207474
0.00412556
0.00301948
0.00224133
0.00155527
0.00106805
0.000881301
0.00103313
0.00147503
0.000789836
0.0019463
0.00378185
0.00274648
0.00204352
0.00143278
0.00101481
0.000871034
0.00104044
0.00148508
0.000783252
0.00167166
0.0030098
0.0021202
0.00159018
0.0011556
0.000882095
0.000812766
0.000999937
0.00145418
0.000786116
0.00124118
0.0016952
0.0011937
0.000991027
0.000842394
0.000771116
0.000809696
0.00104987
0.00154135
0.000745581
0.00123801
0.00116872
0.00112861
0.00109342
0.00106764
0.00104783
0.00103311
0.00100568
0.000923977
0.000668491
0.00127399
0.00120587
0.00115042
0.00110757
0.00107597
0.00105095
0.00102392
0.000971396
0.000845056
0.000417176
0.00166245
0.00215655
0.0014354
0.00109739
0.000904403
0.000858654
0.000991326
0.00139469
0.00202572
0.000611856
0.00278245
0.00401528
0.00267586
0.00180533
0.00122196
0.000941818
0.000965925
0.00130049
0.00187605
0.000690318
0.00351586
0.00512489
0.00351459
0.00235872
0.00153308
0.00107853
0.00102591
0.0013324
0.00185814
0.000705362
0.00384246
0.00561018
0.00387848
0.0026016
0.00167146
0.00113136
0.00103368
0.0013237
0.0018495
0.000714604
0.00384245
0.00561018
0.00387848
0.0026016
0.00167146
0.00113136
0.00103368
0.0013237
0.0018495
0.000714604
0.00351585
0.00512489
0.00351459
0.00235872
0.00153308
0.00107853
0.00102591
0.0013324
0.00185814
0.000705361
0.00278244
0.00401527
0.00267586
0.00180533
0.00122196
0.000941817
0.000965924
0.00130049
0.00187605
0.000690319
0.00166244
0.00215655
0.0014354
0.00109738
0.000904402
0.000858653
0.000991325
0.00139468
0.00202571
0.000611857
0.00127399
0.00120587
0.00115042
0.00110757
0.00107597
0.00105095
0.00102392
0.000971397
0.000845057
0.000417177
0.00130266
0.00122795
0.00116097
0.00111184
0.00107491
0.00104208
0.00100019
0.000928397
0.000789172
0.000406043
0.00243294
0.00239268
0.00156902
0.00116904
0.000995818
0.00103789
0.00133221
0.00196862
0.00268726
0.00060468
0.00445422
0.00444495
0.00287748
0.00185256
0.00125254
0.00106743
0.00124764
0.00178428
0.00246826
0.000630487
0.00579566
0.00575541
0.0038215
0.00244822
0.00156242
0.00119263
0.00128836
0.00175218
0.00229645
0.000639871
0.00638334
0.00632957
0.00423691
0.00271535
0.00170257
0.00123977
0.00129059
0.00173315
0.00226043
0.000646326
0.00638333
0.00632957
0.00423691
0.00271535
0.00170257
0.00123977
0.00129059
0.00173315
0.00226043
0.000646326
0.00579565
0.00575541
0.0038215
0.00244821
0.00156242
0.00119263
0.00128836
0.00175218
0.00229645
0.000639871
0.00445422
0.00444495
0.00287748
0.00185256
0.00125253
0.00106743
0.00124764
0.00178427
0.00246826
0.000630487
0.00243293
0.00239268
0.00156902
0.00116904
0.000995817
0.00103789
0.00133221
0.00196861
0.00268726
0.000604679
0.00130266
0.00122796
0.00116097
0.00111184
0.00107491
0.00104208
0.00100019
0.000928398
0.000789172
0.000406042
0.00131358
0.00122686
0.00115529
0.00110266
0.00106101
0.00101969
0.000966795
0.000887971
0.000742204
0.000489918
0.00298752
0.00236243
0.00160222
0.0012558
0.00119003
0.00139944
0.00193633
0.00279404
0.00310348
0.000679177
0.00539506
0.00426098
0.00275112
0.00179228
0.00133206
0.0013323
0.00172884
0.00248667
0.00304999
0.000717404
0.00710027
0.00564159
0.00371207
0.00237194
0.00160442
0.00141637
0.00169231
0.00229318
0.00271762
0.000667539
0.00786146
0.00626494
0.00415119
0.00264467
0.00173482
0.00145129
0.00167432
0.00222681
0.00259228
0.000634792
0.00786146
0.00626494
0.00415119
0.00264467
0.00173482
0.00145129
0.00167432
0.00222681
0.00259228
0.000634792
0.00710027
0.00564159
0.00371207
0.00237194
0.00160442
0.00141637
0.00169231
0.00229318
0.00271761
0.000667538
0.00539506
0.00426098
0.00275113
0.00179228
0.00133206
0.00133229
0.00172883
0.00248666
0.00304998
0.000717402
0.00298752
0.00236243
0.00160222
0.0012558
0.00119002
0.00139943
0.00193632
0.00279403
0.00310348
0.000679176
0.00131358
0.00122686
0.00115529
0.00110266
0.00106101
0.00101969
0.000966795
0.000887972
0.000742204
0.000489917
0.001291
0.00120069
0.00113145
0.00107795
0.0010327
0.000986341
0.000931439
0.000858121
0.000748815
0.000577006
0.00297339
0.00221175
0.00166411
0.0014833
0.00160881
0.00205084
0.00279475
0.00343125
0.00240077
0.000700573
0.00515302
0.00373256
0.00250687
0.00178898
0.0015732
0.00180448
0.00241694
0.00319209
0.00297656
0.0007641
0.00693416
0.00508123
0.00341659
0.00229604
0.00176556
0.00178643
0.002211
0.00280537
0.00278286
0.000714496
0.00777966
0.00573097
0.00386643
0.00256236
0.0018779
0.00179469
0.00214119
0.00265485
0.00263862
0.000668299
0.00777966
0.00573097
0.00386643
0.00256236
0.0018779
0.00179469
0.00214119
0.00265485
0.00263862
0.000668298
0.00693416
0.00508124
0.00341659
0.00229604
0.00176556
0.00178642
0.002211
0.00280537
0.00278286
0.000714493
0.00515303
0.00373257
0.00250687
0.00178898
0.0015732
0.00180447
0.00241693
0.00319208
0.00297655
0.000764098
0.00297338
0.00221175
0.00166411
0.0014833
0.0016088
0.00205084
0.00279475
0.00343125
0.00240078
0.000700572
0.001291
0.00120069
0.00113146
0.00107795
0.0010327
0.000986341
0.00093144
0.00085812
0.000748815
0.000577005
0.00124426
0.00116192
0.00109868
0.00104875
0.00100849
0.000975638
0.000962499
0.000955519
0.000838075
0.000689172
0.00277115
0.00223403
0.00196865