/*--------------------------------*- C++ -*----------------------------------*\
  =========                 |
  \\      /  F ield         | OpenFOAM: The Open Source CFD Toolbox
   \\    /   O peration     | Website:  https://openfoam.org
    \\  /    A nd           | Version:  9
     \\/     M anipulation  |
\*---------------------------------------------------------------------------*/
FoamFile
{
    format      ascii;
    class       volScalarField;
    location    "5";
    object      nut;
}
// * * * * * * * * * * * * * * * * * * * * * * * * * * * * * * * * * * * * * //

dimensions      [0 2 -1 0 0 0 0];

internalField   nonuniform List<scalar> 
36000
(
2.7961e-05
2.79596e-05
2.79522e-05
2.795e-05
2.79498e-05
2.79497e-05
2.79503e-05
2.7952e-05
2.79599e-05
2.79609e-05
2.79596e-05
0.000310086
0.000385624
0.000389406
0.000389595
0.000389581
0.000389447
0.000385579
0.00031011
2.79599e-05
2.7952e-05
0.000385609
0.000608279
0.000633338
0.000635471
0.000635436
0.000633361
0.000608146
0.000385601
2.79522e-05
2.79501e-05
0.000389431
0.000633427
0.000664237
0.000667282
0.000667242
0.000664307
0.000633268
0.00038943
2.79503e-05
2.79497e-05
0.000389601
0.000635561
0.000667255
0.000670437
0.000670393
0.00066732
0.000635393
0.000389597
2.79499e-05
2.79497e-05
0.000389601
0.000635561
0.000667255
0.000670437
0.000670393
0.00066732
0.000635393
0.000389597
2.79499e-05
2.79501e-05
0.000389431
0.000633428
0.000664237
0.000667282
0.000667242
0.000664307
0.000633268
0.00038943
2.79503e-05
2.7952e-05
0.000385609
0.000608279
0.000633338
0.000635471
0.000635436
0.000633361
0.000608145
0.000385601
2.79522e-05
2.79596e-05
0.000310085
0.000385624
0.000389406
0.000389595
0.000389581
0.000389447
0.000385579
0.00031011
2.79599e-05
2.7961e-05
2.79596e-05
2.79522e-05
2.795e-05
2.79498e-05
2.79497e-05
2.79503e-05
2.7952e-05
2.79599e-05
2.79609e-05
2.85865e-05
2.85469e-05
2.85362e-05
2.85288e-05
2.85287e-05
2.85283e-05
2.85297e-05
2.85356e-05
2.85478e-05
2.85861e-05
2.8547e-05
0.00021672
0.000283337
0.000288627
0.000288784
0.000288766
0.000288733
0.00028326
0.000216821
2.85476e-05
2.85356e-05
0.000283332
0.000532468
0.000580556
0.000586045
0.000586
0.000580569
0.000532236
0.000283301
2.85362e-05
2.85289e-05
0.000288677
0.000580667
0.000648533
0.000657766
0.000657747
0.000648648
0.000580422
0.000288659
2.85297e-05
2.85283e-05
0.000288799
0.000586187
0.000657764
0.000667807
0.000667779
0.00065786
0.000585925
0.000288772
2.8529e-05
2.85283e-05
0.000288799
0.000586187
0.000657764
0.000667807
0.000667779
0.00065786
0.000585925
0.000288772
2.8529e-05
2.85289e-05
0.000288677
0.000580667
0.000648532
0.000657765
0.000657746
0.000648648
0.000580422
0.000288659
2.85297e-05
2.85356e-05
0.000283332
0.000532469
0.000580555
0.000586045
0.000586
0.000580569
0.000532236
0.000283301
2.85362e-05
2.8547e-05
0.00021672
0.000283337
0.000288627
0.000288784
0.000288766
0.000288733
0.00028326
0.000216821
2.85476e-05
2.85865e-05
2.85469e-05
2.85362e-05
2.85288e-05
2.85287e-05
2.85283e-05
2.85297e-05
2.85356e-05
2.85478e-05
2.85861e-05
2.9223e-05
2.91137e-05
2.91132e-05
2.90958e-05
2.90977e-05
2.90972e-05
2.90968e-05
2.91122e-05
2.91145e-05
2.92216e-05
2.91138e-05
0.0001735
0.000232069
0.000237773
0.000238022
0.000238023
0.000237873
0.000231975
0.000173586
2.91146e-05
2.91121e-05
0.000232129
0.000469904
0.000530695
0.000539461
0.000539445
0.000530634
0.000469536
0.000231936
2.91131e-05
2.90957e-05
0.000237874
0.000530823
0.000626514
0.000643427
0.000643462
0.000626548
0.000530317
0.000237728
2.90969e-05
2.90969e-05
0.000238107
0.000539689
0.000643502
0.000662723
0.000662749
0.000643507
0.000539139
0.000237947
2.9098e-05
2.90969e-05
0.000238108
0.000539688
0.000643502
0.000662723
0.000662749
0.000643507
0.00053914
0.000237946
2.9098e-05
2.90957e-05
0.000237874
0.000530822
0.000626513
0.000643427
0.000643462
0.000626548
0.000530317
0.000237728
2.90969e-05
2.91121e-05
0.000232129
0.000469904
0.000530695
0.000539461
0.000539446
0.000530634
0.000469536
0.000231936
2.91131e-05
2.91138e-05
0.000173499
0.000232069
0.000237773
0.000238022
0.000238023
0.000237873
0.000231975
0.000173586
2.91146e-05
2.9223e-05
2.91137e-05
2.91132e-05
2.90958e-05
2.90977e-05
2.90972e-05
2.90968e-05
2.91122e-05
2.91145e-05
2.92216e-05
2.98559e-05
2.9665e-05
2.96798e-05
2.96474e-05
2.96536e-05
2.96528e-05
2.96476e-05
2.9678e-05
2.96643e-05
2.98526e-05
2.96643e-05
0.000147427
0.000200317
0.000206007
0.000206437
0.00020646
0.000206035
0.000200124
0.000146532
2.96636e-05
2.96778e-05
0.000200482
0.000419672
0.000486585
0.000497952
0.000497982
0.00048636
0.000419088
0.000199936
2.96792e-05
2.96468e-05
0.000206189
0.000486733
0.000600991
0.000625671
0.00062573
0.000600605
0.000485563
0.000205758
2.96487e-05
2.96524e-05
0.000206664
0.000498315
0.000625895
0.000655131
0.000655182
0.000625471
0.000497054
0.00020619
2.96541e-05
2.96524e-05
0.000206664
0.000498315
0.000625894
0.000655131
0.000655182
0.000625471
0.000497053
0.000206191
2.96541e-05
2.96468e-05
0.000206189
0.000486732
0.000600991
0.000625671
0.00062573
0.000600604
0.000485563
0.000205758
2.96487e-05
2.96778e-05
0.000200482
0.000419672
0.000486585
0.000497952
0.000497982
0.00048636
0.000419088
0.000199936
2.96792e-05
2.96643e-05
0.000147427
0.000200317
0.000206007
0.000206437
0.00020646
0.000206035
0.000200124
0.000146532
2.96636e-05
2.98559e-05
2.9665e-05
2.96798e-05
2.96474e-05
2.96536e-05
2.96528e-05
2.96476e-05
2.9678e-05
2.96643e-05
2.98526e-05
3.0478e-05
3.01989e-05
3.02328e-05
3.01834e-05
3.01951e-05
3.0194e-05
3.01817e-05
3.02296e-05
3.01964e-05
3.04711e-05
3.01991e-05
0.000127094
0.000177991
0.000183719
0.000184303
0.000184269
0.00018366
0.00017753
0.000124663
3.01926e-05
3.02295e-05
0.000178297
0.000378963
0.000448238
0.000461482
0.000461515
0.000447662
0.000377768
0.000176452
3.0231e-05
3.01814e-05
0.000184067
0.000448456
0.000574229
0.000605773
0.000605743
0.000572943
0.000445616
0.000180982
3.0182e-05
3.0193e-05
0.000184787
0.000462093
0.000606235
0.000645085
0.000645027
0.000604792
0.000459008
0.000181384
3.01932e-05
3.0193e-05
0.000184787
0.000462093
0.000606235
0.000645085
0.000645027
0.000604793
0.000459011
0.000181384
3.01932e-05
3.01814e-05
0.000184067
0.000448455
0.000574228
0.000605773
0.000605743
0.000572943
0.000445614
0.000180981
3.0182e-05
3.02295e-05
0.000178297
0.000378963
0.000448238
0.000461482
0.000461515
0.000447662
0.000377768
0.000176452
3.0231e-05
3.01991e-05
0.000127094
0.000177991
0.000183719
0.000184303
0.000184269
0.00018366
0.00017753
0.000124663
3.01926e-05
3.0478e-05
3.01989e-05
3.02328e-05
3.01834e-05
3.01951e-05
3.0194e-05
3.01817e-05
3.02296e-05
3.01964e-05
3.04711e-05
3.10883e-05
3.0717e-05
3.07716e-05
3.07029e-05
3.07198e-05
3.07176e-05
3.06985e-05
3.0765e-05
3.0714e-05
3.1073e-05
3.072e-05
0.000111543
0.000160699
0.000165255
0.000165729
0.00016547
0.000165309
0.000159411
0.000107828
3.07034e-05
3.07666e-05
0.000161549
0.000345511
0.000414641
0.000428953
0.000428893
0.000413463
0.000342827
0.000156208
3.0764e-05
3.07012e-05
0.000167518
0.000415446
0.000547609
0.000584667
0.000584372
0.00054486
0.000409489
0.000160056
3.06953e-05
3.07193e-05
0.000168443
0.000430603
0.000585552
0.000632854
0.000632462
0.000582364
0.000424085
0.000160517
3.0713e-05
3.07193e-05
0.000168443
0.000430603
0.000585552
0.000632853
0.000632462
0.000582364
0.000424087
0.000160517
3.0713e-05
3.07012e-05
0.000167518
0.000415445
0.000547609
0.000584666
0.000584372
0.00054486
0.000409488
0.000160056
3.06953e-05
3.07666e-05
0.000161549
0.000345511
0.00041464
0.000428953
0.000428893
0.000413463
0.000342827
0.000156208
3.0764e-05
3.072e-05
0.000111543
0.000160699
0.000165255
0.000165729
0.00016547
0.000165309
0.000159411
0.000107828
3.07034e-05
3.10883e-05
3.0717e-05
3.07716e-05
3.07029e-05
3.07198e-05
3.07176e-05
3.06985e-05
3.0765e-05
3.0714e-05
3.1073e-05
3.16865e-05
3.12201e-05
3.12949e-05
3.12066e-05
3.12282e-05
3.12242e-05
3.11983e-05
3.12822e-05
3.12187e-05
3.16562e-05
3.12293e-05
9.99829e-05
0.000146179
0.000150233
0.00015061
0.000150211
0.00015027
0.000144179
9.49655e-05
3.11963e-05
3.12888e-05
0.000148329
0.000317552
0.000385103
0.0004
0.000399739
0.000383178
0.000312569
0.000139215
3.12775e-05
3.12066e-05
0.000154557
0.000386995
0.000521926
0.000563071
0.000562296
0.000517082
0.000376658
0.000142656
3.11888e-05
3.12315e-05
0.000155647
0.000403269
0.000564664
0.000618877
0.000617854
0.000558838
0.00039184
0.000143167
3.12135e-05
3.12315e-05
0.000155647
0.000403269
0.000564664
0.000618876
0.000617854
0.000558838
0.000391841
0.000143167
3.12135e-05
3.12066e-05
0.000154557
0.000386995
0.000521926
0.00056307
0.000562296
0.000517082
0.000376657
0.000142656
3.11888e-05
3.12888e-05
0.000148329
0.000317552
0.000385102
0.0004
0.000399739
0.000383178
0.000312569
0.000139215
3.12775e-05
3.12293e-05
9.99828e-05
0.000146179
0.000150233
0.00015061
0.000150211
0.00015027
0.000144179
9.49655e-05
3.11963e-05
3.16865e-05
3.12201e-05
3.12949e-05
3.12066e-05
3.12282e-05
3.12242e-05
3.11983e-05
3.12822e-05
3.12187e-05
3.16562e-05
3.22718e-05
3.17094e-05
3.18029e-05
3.16951e-05
3.17206e-05
3.17137e-05
3.16811e-05
3.17808e-05
3.17115e-05
3.22175e-05
3.17281e-05
9.1397e-05
0.000134205
0.000138058
0.000138318
0.00013783
0.000138003
0.000131412
8.49459e-05
3.16701e-05
3.17951e-05
0.00013759
0.000293943
0.000359227
0.000374304
0.000373744
0.000356262
0.000285878
0.000124774
3.17703e-05
3.16966e-05
0.000144081
0.000362447
0.000497708
0.000541623
0.000540113
0.000490019
0.00034658
0.000127971
3.16615e-05
3.17284e-05
0.000145303
0.000379548
0.000544208
0.00060368
0.000601648
0.000534663
0.000361837
0.000128499
3.16932e-05
3.17284e-05
0.000145303
0.000379548
0.000544208
0.00060368
0.000601648
0.000534662
0.000361837
0.000128499
3.16932e-05
3.16966e-05
0.000144081
0.000362447
0.000497708
0.000541623
0.000540113
0.000490019
0.00034658
0.000127971
3.16615e-05
3.17951e-05
0.00013759
0.000293943
0.000359227
0.000374304
0.000373743
0.000356262
0.000285878
0.000124773
3.17703e-05
3.17281e-05
9.1397e-05
0.000134205
0.000138058
0.000138318
0.00013783
0.000138003
0.000131412
8.49459e-05
3.16701e-05
3.22718e-05
3.17094e-05
3.18029e-05
3.16951e-05
3.17206e-05
3.17137e-05
3.16811e-05
3.17808e-05
3.17115e-05
3.22175e-05
3.28431e-05
3.2186e-05
3.22959e-05
3.2169e-05
3.2197e-05
3.21856e-05
3.21467e-05
3.22597e-05
3.21931e-05
3.27526e-05
3.2218e-05
8.49496e-05
0.000124263
0.000128042
0.000128171
0.000127622
0.000127823
0.000120523
7.68689e-05
3.21229e-05
3.22842e-05
0.000128713
0.000273848
0.000336591
0.000351556
0.000350588
0.000332194
0.000261837
0.00011218
3.22401e-05
3.21702e-05
0.000135445
0.000341274
0.000475279
0.00052082
0.000518254
0.000463797
0.000318607
0.000115203
3.21114e-05
3.22087e-05
0.000136775
0.000359021
0.000524681
0.000587806
0.000584283
0.000510078
0.00033352
0.000115715
3.21503e-05
3.22087e-05
0.000136775
0.00035902
0.000524681
0.000587806
0.000584282
0.000510078
0.00033352
0.000115715
3.21503e-05
3.21702e-05
0.000135445
0.000341274
0.000475279
0.000520819
0.000518253
0.000463797
0.000318607
0.000115203
3.21114e-05
3.22842e-05
0.000128713
0.000273848
0.000336591
0.000351556
0.000350587
0.000332194
0.000261837
0.00011218
3.22401e-05
3.2218e-05
8.49495e-05
0.000124263
0.000128042
0.000128171
0.000127622
0.000127823
0.000120523
7.68689e-05
3.21229e-05
3.28431e-05
3.2186e-05
3.22959e-05
3.2169e-05
3.2197e-05
3.21856e-05
3.21467e-05
3.22597e-05
3.21931e-05
3.27526e-05
3.34003e-05
3.26516e-05
3.27745e-05
3.26291e-05
3.26576e-05
3.26398e-05
3.25952e-05
3.27182e-05
3.26641e-05
3.32568e-05
3.26984e-05
7.99647e-05
0.000115914
0.000119668
0.000119652
0.000119058
0.000119194
0.000110997
7.01344e-05
3.25515e-05
3.27554e-05
0.000121314
0.000256705
0.000316838
0.00033147
0.00032996
0.000310471
0.000239702
0.000100919
3.26841e-05
3.26265e-05
0.000128264
0.000323089
0.00045486
0.000501046
0.000497002
0.000438326
0.000292049
0.000103793
3.25361e-05
3.26714e-05
0.000129687
0.000341405
0.000506517
0.000571797
0.000566147
0.000485113
0.000306248
0.000104252
3.25819e-05
3.26714e-05
0.000129687
0.000341405
0.000506517
0.000571797
0.000566147
0.000485112
0.000306248
0.000104252
3.25819e-05
3.26265e-05
0.000128264
0.000323089
0.00045486
0.000501046
0.000497002
0.000438325
0.000292049
0.000103793
3.25361e-05
3.27554e-05
0.000121314
0.000256705
0.000316837
0.00033147
0.000329959
0.000310471
0.000239702
0.000100919
3.26841e-05
3.26984e-05
7.99647e-05
0.000115914
0.000119668
0.000119651
0.000119058
0.000119194
0.000110997
7.01344e-05
3.25515e-05
3.34003e-05
3.26516e-05
3.27745e-05
3.26291e-05
3.26576e-05
3.26398e-05
3.25952e-05
3.27182e-05
3.26641e-05
3.32568e-05
3.3944e-05
3.31084e-05
3.32398e-05
3.30767e-05
3.3103e-05
3.30762e-05
3.30264e-05
3.31557e-05
3.3125e-05
3.37242e-05
3.31642e-05
7.5872e-05
0.000108838
0.000112584
0.000112407
0.000111777
0.000111724
0.000102443
6.43686e-05
3.29518e-05
3.32076e-05
0.000115152
0.000242137
0.000299706
0.000313822
0.00031158
0.000290596
0.000218792
9.0687e-05
3.30982e-05
3.30645e-05
0.000122316
0.000307689
0.000436676
0.000482647
0.000476541
0.000413334
0.000266191
9.34103e-05
3.29318e-05
3.31155e-05
0.00012383
0.000326584
0.000490168
0.00055621
0.000547565
0.000459584
0.000279335
9.3787e-05
3.29841e-05
3.31155e-05
0.00012383
0.000326584
0.000490168
0.00055621
0.000547564
0.000459584
0.000279334
9.37871e-05
3.29841e-05
3.30645e-05
0.000122316
0.000307689
0.000436676
0.000482647
0.00047654
0.000413334
0.000266191
9.34102e-05
3.29318e-05
3.32076e-05
0.000115152
0.000242137
0.000299705
0.000313822
0.00031158
0.000290596
0.000218792
9.0687e-05
3.30982e-05
3.31642e-05
7.58719e-05
0.000108838
0.000112584
0.000112407
0.000111777
0.000111724
0.000102443
6.43686e-05
3.29518e-05
3.3944e-05
3.31084e-05
3.32398e-05
3.30767e-05
3.3103e-05
3.30762e-05
3.30264e-05
3.31557e-05
3.3125e-05
3.37242e-05
3.44752e-05
3.35598e-05
3.36936e-05
3.35133e-05
3.35338e-05
3.34947e-05
3.344e-05
3.35717e-05
3.35754e-05
3.41469e-05
3.36134e-05
7.25272e-05
0.000102821
0.000106546
0.00010619
0.000105521
0.000105103
9.45476e-05
5.93536e-05
3.33176e-05
3.36393e-05
0.0001101
0.000229935
0.000285054
0.000298473
0.000295213
0.000272053
0.000198462
8.13436e-05
3.34766e-05
3.34828e-05
0.000117506
0.00029506
0.000421046
0.00046599
0.00045697
0.000388367
0.000240333
8.39102e-05
3.32929e-05
3.35392e-05
0.000119123
0.00031465
0.000476203
0.000541644
0.000528765
0.000433081
0.000252105
8.4188e-05
3.33514e-05
3.35392e-05
0.000119123
0.00031465
0.000476203
0.000541644
0.000528765
0.000433081
0.000252105
8.4188e-05
3.33514e-05
3.34828e-05
0.000117506
0.00029506
0.000421046
0.00046599
0.00045697
0.000388367
0.000240333
8.39101e-05
3.32929e-05
3.36393e-05
0.0001101
0.000229934
0.000285054
0.000298473
0.000295212
0.000272053
0.000198462
8.13436e-05
3.34766e-05
3.36134e-05
7.25271e-05
0.000102821
0.000106546
0.00010619
0.000105521
0.000105103
9.45476e-05
5.93536e-05
3.33176e-05
3.44752e-05
3.35597e-05
3.36936e-05
3.35133e-05
3.35338e-05
3.34947e-05
3.344e-05
3.35717e-05
3.35754e-05
3.41469e-05
3.49958e-05
3.40094e-05
3.4138e-05
3.39408e-05
3.39505e-05
3.38953e-05
3.38357e-05
3.3966e-05
3.40135e-05
3.45135e-05
3.40434e-05
6.98469e-05
9.77213e-05
0.00010139
0.00010083
0.000100098
9.90564e-05
8.70503e-05
5.49877e-05
3.364e-05
3.40484e-05
0.000106132
0.000220064
0.000272895
0.000285391
0.000280644
0.000254246
0.000178123
7.28938e-05
3.3811e-05
3.38795e-05
0.000113865
0.000285445
0.000408477
0.000451507
0.000438284
0.000362739
0.00021389
7.53095e-05
3.3611e-05
3.39407e-05
0.00011562
0.000306001
0.000465415
0.000528768
0.000509829
0.000404915
0.000224011
7.54833e-05
3.36754e-05
3.39407e-05
0.00011562
0.000306001
0.000465415
0.000528768
0.000509829
0.000404915
0.000224011
7.54833e-05
3.36754e-05
3.38795e-05
0.000113865
0.000285445
0.000408477
0.000451506
0.000438284
0.000362739
0.00021389
7.53094e-05
3.3611e-05
3.40484e-05
0.000106132
0.000220064
0.000272895
0.000285391
0.000280644
0.000254246
0.000178123
7.28938e-05
3.3811e-05
3.40434e-05
6.98468e-05
9.77213e-05
0.00010139
0.000100829
0.000100098
9.90564e-05
8.70503e-05
5.49877e-05
3.364e-05
3.49958e-05
3.40094e-05
3.4138e-05
3.39408e-05
3.39505e-05
3.38953e-05
3.38357e-05
3.3966e-05
3.40135e-05
3.45135e-05
3.55087e-05
3.44624e-05
3.45759e-05
3.43613e-05
3.43538e-05
3.4278e-05
3.42129e-05
3.43394e-05
3.44346e-05
3.48081e-05
3.44504e-05
6.7797e-05
9.34693e-05
9.70198e-05
9.62203e-05
9.53535e-05
9.33175e-05
7.97546e-05
5.12672e-05
3.39065e-05
3.44326e-05
0.000103351
0.000212722
0.00026344
0.000274659
0.00026763
0.000236424
0.000157355
6.54663e-05
3.4089e-05
3.42526e-05
0.000111592
0.000279478
0.000399771
0.000439695
0.000420257
0.00033546
0.000186579
6.77556e-05
3.38738e-05
3.43179e-05
0.00011356
0.000301513
0.000458936
0.000518269
0.000490529
0.000374068
0.000194851
6.78303e-05
3.39439e-05
3.43179e-05
0.00011356
0.000301513
0.000458936
0.000518269
0.000490529
0.000374068
0.000194851
6.78303e-05
3.39439e-05
3.42526e-05
0.000111592
0.000279478
0.000399771
0.000439695
0.000420257
0.00033546
0.000186579
6.77555e-05
3.38738e-05
3.44326e-05
0.000103351
0.000212722
0.00026344
0.000274659
0.00026763
0.000236424
0.000157355
6.54663e-05
3.4089e-05
3.44504e-05
6.7797e-05
9.34694e-05
9.70197e-05
9.62202e-05
9.53534e-05
9.33175e-05
7.97546e-05
5.12672e-05
3.39065e-05
3.55087e-05
3.44624e-05
3.45759e-05
3.43613e-05
3.43538e-05
3.4278e-05
3.42129e-05
3.43394e-05
3.44346e-05
3.48081e-05
3.60183e-05
3.4925e-05
3.50108e-05
3.47771e-05
3.47441e-05
3.46426e-05
3.45709e-05
3.4693e-05
3.48289e-05
3.5007e-05
3.48295e-05
6.64178e-05
9.00743e-05
9.34132e-05
9.23114e-05
9.11387e-05
8.76102e-05
7.2561e-05
4.82742e-05
3.40988e-05
3.47893e-05
0.000102065
0.000208446
0.000257165
0.000266447
0.000255761
0.000217605
0.000136109
5.92721e-05
3.42928e-05
3.46004e-05
0.000111189
0.000278412
0.000396083
0.000430972
0.000402194
0.000305229
0.000158712
6.14784e-05
3.40636e-05
3.46696e-05
0.000113529
0.000302841
0.000458254
0.000510609
0.000470032
0.000339224
0.000165082
6.14662e-05
3.41393e-05
3.46696e-05
0.000113529
0.000302841
0.000458254
0.000510609
0.000470032
0.000339224
0.000165082
6.14662e-05
3.41393e-05
3.46004e-05
0.000111189
0.000278412
0.000396083
0.000430972
0.000402194
0.000305229
0.000158712
6.14784e-05
3.40636e-05
3.47893e-05
0.000102065
0.000208446
0.000257165
0.000266446
0.000255761
0.000217605
0.000136109
5.92721e-05
3.42928e-05
3.48295e-05
6.64177e-05
9.00743e-05
9.34131e-05
9.23113e-05
9.11387e-05
8.76102e-05
7.2561e-05
4.82742e-05
3.40988e-05
3.60183e-05
3.4925e-05
3.50108e-05
3.47771e-05
3.47441e-05
3.46426e-05
3.45709e-05
3.4693e-05
3.48289e-05
3.5007e-05
3.65309e-05
3.54048e-05
3.5447e-05
3.51902e-05
3.51214e-05
3.49889e-05
3.49097e-05
3.50279e-05
3.51776e-05
3.50744e-05
3.51752e-05
6.58562e-05
8.76568e-05
9.06292e-05
8.90872e-05
8.72594e-05
8.16475e-05
6.5531e-05
4.6165e-05
3.41907e-05
3.51195e-05
0.000102972
0.000208304
0.000254836
0.000260854
0.000244203
0.000196605
0.000114952
5.45553e-05
3.43966e-05
3.49271e-05
0.000113778
0.000284438
0.000398758
0.00042525
0.000382533
0.000270664
0.00013143
5.67377e-05
3.41553e-05
3.50011e-05
0.00011684
0.000312784
0.000464853
0.000505435
0.00044648
0.000299118
0.000136031
5.66531e-05
3.42366e-05
3.50011e-05
0.00011684
0.000312784
0.000464853
0.000505435
0.00044648
0.000299118
0.000136031
5.66531e-05
3.42366e-05
3.49271e-05
0.000113778
0.000284438
0.000398758
0.00042525
0.000382533
0.000270664
0.00013143
5.67377e-05
3.41553e-05
3.51195e-05
0.000102972
0.000208304
0.000254836
0.000260854
0.000244203
0.000196605
0.000114952
5.45553e-05
3.43966e-05
3.51752e-05
6.58562e-05
8.76568e-05
9.06291e-05
8.90872e-05
8.72594e-05
8.16476e-05
6.5531e-05
4.6165e-05
3.41907e-05
3.65309e-05
3.54048e-05
3.5447e-05
3.51902e-05
3.51214e-05
3.49889e-05
3.49097e-05
3.50279e-05
3.51776e-05
3.50744e-05
3.7055e-05
3.59096e-05
3.58889e-05
3.56016e-05
3.54847e-05
3.53163e-05
3.52294e-05
3.53413e-05
3.54481e-05
3.49539e-05
3.54832e-05
6.64958e-05
8.64853e-05
8.8806e-05
8.65147e-05
8.34141e-05
7.52025e-05
5.89886e-05
4.5164e-05
3.41432e-05
3.54366e-05
0.000107641
0.00021404
0.00025732
0.000257512
0.000231365
0.000172448
9.52529e-05
5.15652e-05
3.43637e-05
3.52568e-05
0.000121924
0.000300644
0.000408532
0.00042112
0.000358529
0.000231191
0.000106755
5.37929e-05
3.41129e-05
3.53409e-05
0.000126518
0.000335036
0.000478981
0.000500657
0.000416803
0.000253564
0.00010989
5.36495e-05
3.42003e-05
3.53409e-05
0.000126518
0.000335036
0.000478981
0.000500657
0.000416803
0.000253564
0.00010989
5.36495e-05
3.42004e-05
3.52568e-05
0.000121924
0.000300644
0.000408532
0.00042112
0.000358529
0.000231191
0.000106755
5.37929e-05
3.41129e-05
3.54366e-05
0.000107641
0.00021404
0.00025732
0.000257512
0.000231365
0.000172448
9.52529e-05
5.15652e-05
3.43637e-05
3.54832e-05
6.64958e-05
8.64853e-05
8.8806e-05
8.65147e-05
8.34141e-05
7.52025e-05
5.89887e-05
4.5164e-05
3.41432e-05
3.7055e-05
3.59096e-05
3.58889e-05
3.56016e-05
3.54847e-05
3.53163e-05
3.52294e-05
3.53413e-05
3.54481e-05
3.49539e-05
3.76062e-05
3.64504e-05
3.63404e-05
3.60104e-05
3.58313e-05
3.56237e-05
3.55295e-05
3.56177e-05
3.55871e-05
3.45538e-05
3.57796e-05
6.91646e-05
8.70891e-05
8.8145e-05
8.4441e-05
7.91634e-05
6.82709e-05
5.3505e-05
4.55364e-05
3.38988e-05
3.58282e-05
0.000119507
0.000227986
0.000264996
0.000254905
0.000214792
0.000145274
7.8735e-05
5.05329e-05
3.41423e-05
3.57176e-05
0.000141282
0.000329558
0.00042403
0.000415062
0.000326609
0.000188357
8.67374e-05
5.28728e-05
3.38883e-05
3.58345e-05
0.000149251
0.000371753
0.000497899
0.000491903
0.000377352
0.000204782
8.87822e-05
5.26841e-05
3.39825e-05
3.58345e-05
0.000149251
0.000371753
0.000497899
0.000491903
0.000377352
0.000204782
8.87822e-05
5.26841e-05
3.39825e-05
3.57176e-05
0.000141281
0.000329558
0.00042403
0.000415062
0.000326609
0.000188356
8.67373e-05
5.28728e-05
3.38883e-05
3.58282e-05
0.000119507
0.000227986
0.000264996
0.000254905
0.000214792
0.000145274
7.87349e-05
5.05329e-05
3.41423e-05
3.57796e-05
6.91646e-05
8.70891e-05
8.8145e-05
8.4441e-05
7.91634e-05
6.82709e-05
5.3505e-05
4.55364e-05
3.38988e-05
3.76062e-05
3.64504e-05
3.63404e-05
3.60104e-05
3.58313e-05
3.56237e-05
3.55295e-05
3.56177e-05
3.55871e-05
3.45538e-05
3.81935e-05
3.7029e-05
3.68017e-05
3.64111e-05
3.61561e-05
3.59081e-05
3.58014e-05
3.58155e-05
3.55108e-05
3.37136e-05
3.61654e-05
7.57002e-05
8.99661e-05
8.87247e-05
8.24195e-05
7.40191e-05
6.12695e-05
4.97638e-05
4.75189e-05
3.33659e-05
3.66585e-05
0.000144712
0.000250226
0.000276183
0.000249624
0.000191816
0.000117245
6.66967e-05
5.15962e-05
3.36614e-05
3.68494e-05
0.000180642
0.000367004
0.000440029
0.000401316
0.000283956
0.00014646
7.25768e-05
5.40813e-05
3.34177e-05
3.70973e-05
0.000194846
0.000415953
0.000514779
0.000472941
0.00032573
0.000157751
7.387e-05
5.38716e-05
3.35201e-05
3.70973e-05
0.000194846
0.000415953
0.000514779
0.000472941
0.00032573
0.000157751
7.387e-05
5.38716e-05
3.35201e-05
3.68493e-05
0.000180642
0.000367004
0.000440029
0.000401316
0.000283956
0.00014646
7.25767e-05
5.40813e-05
3.34177e-05
3.66585e-05
0.000144712
0.000250226
0.000276183
0.000249624
0.000191816
0.000117245
6.66967e-05
5.15962e-05
3.36614e-05
3.61654e-05
7.57002e-05
8.99661e-05
8.87247e-05
8.24196e-05
7.40192e-05
6.12695e-05
4.97638e-05
4.75189e-05
3.33659e-05
3.81935e-05
3.7029e-05
3.68017e-05
3.64111e-05
3.61561e-05
3.59081e-05
3.58014e-05
3.58155e-05
3.55108e-05
3.37136e-05
3.88607e-05
3.7688e-05
3.72708e-05
3.67923e-05
3.64489e-05
3.61594e-05
3.60132e-05
3.58537e-05
3.50881e-05
3.21175e-05
3.7354e-05
9.06449e-05
9.6135e-05
9.0329e-05
7.96273e-05
6.77699e-05
5.50963e-05
4.83843e-05
5.12592e-05
3.23849e-05
3.94679e-05
0.000189678
0.000277867
0.000286389
0.000236718
0.000161577
9.22536e-05
5.96622e-05
5.47699e-05
3.28204e-05
4.06873e-05
0.000245155
0.000403631
0.000448901
0.000373585
0.000231475
0.000111157
6.44716e-05
5.73931e-05
3.2622e-05
4.13549e-05
0.000267681
0.000455733
0.000521515
0.000437702
0.000263679
0.00011849
6.52722e-05
5.72195e-05
3.2735e-05
4.13549e-05
0.000267681
0.000455733
0.000521515
0.000437702
0.000263679
0.00011849
6.52722e-05
5.72195e-05
3.2735e-05
4.06873e-05
0.000245155
0.000403631
0.000448901
0.000373585
0.000231475
0.000111157
6.44716e-05
5.73931e-05
3.2622e-05
3.94679e-05
0.000189677
0.000277867
0.000286389
0.000236718
0.000161577
9.22536e-05
5.96622e-05
5.47699e-05
3.28204e-05
3.7354e-05
9.06449e-05
9.6135e-05
9.03291e-05
7.96273e-05
6.77699e-05
5.50964e-05
4.83843e-05
5.12592e-05
3.23849e-05
3.88607e-05
3.7688e-05
3.72708e-05
3.67923e-05
3.64489e-05
3.61594e-05
3.60132e-05
3.58537e-05
3.50881e-05
3.21176e-05
3.95072e-05
3.83858e-05
3.77213e-05
3.71285e-05
3.66883e-05
3.63462e-05
3.609e-05
3.56077e-05
3.41307e-05
2.9031e-05
5.05756e-05
0.000109996
0.000104793
9.12273e-05
7.50685e-05
6.09368e-05
5.0914e-05
4.98304e-05
5.6721e-05
3.06593e-05
7.51896e-05
0.000247577
0.00030491
0.000286422
0.000211447
0.000127411
7.39175e-05
5.75066e-05
5.9884e-05
3.14817e-05
9.08806e-05
0.000329063
0.000437779
0.000440983
0.000327394
0.000176088
8.64821e-05
6.19487e-05
6.25293e-05
3.14243e-05
9.75144e-05
0.000362999
0.000493196
0.000509545
0.000382222
0.000199064
9.10644e-05
6.24756e-05
6.25045e-05
3.15561e-05
9.75144e-05
0.000362999
0.000493196
0.000509545
0.000382222
0.000199064
9.10644e-05
6.24756e-05
6.25045e-05
3.15561e-05
9.08806e-05
0.000329063
0.00043778
0.000440983
0.000327394
0.000176088
8.6482e-05
6.19487e-05
6.25293e-05
3.14243e-05
7.51895e-05
0.000247577
0.00030491
0.000286422
0.000211447
0.000127411
7.39175e-05
5.75066e-05
5.98839e-05
3.14817e-05
5.05755e-05
0.000109996
0.000104793
9.12273e-05
7.50686e-05
6.09369e-05
5.0914e-05
4.98304e-05
5.6721e-05
3.06593e-05
3.95072e-05
3.83858e-05
3.77213e-05
3.71285e-05
3.66883e-05
3.63462e-05
3.609e-05
3.56077e-05
3.41307e-05
2.9031e-05
4.00773e-05
3.8991e-05
3.80839e-05
3.73681e-05
3.6831e-05
3.64004e-05
3.59291e-05
3.49955e-05
3.26405e-05
2.29337e-05
7.73792e-05
0.000126285
0.000110384
8.83674e-05
6.83721e-05
5.50108e-05
4.98905e-05
5.46204e-05
6.40402e-05
2.7774e-05
0.000153639
0.000297211
0.000317435
0.000266436
0.000173111
9.66241e-05
6.37883e-05
5.99881e-05
6.68474e-05
2.95012e-05
0.000204414
0.000402667
0.000455625
0.000407108
0.000263934
0.000128789
7.31542e-05
6.43695e-05
6.90827e-05
2.98209e-05
0.000226062
0.000447403
0.000514416
0.00047035
0.000308019
0.000143951
7.61001e-05
6.486e-05
6.93081e-05
3.00156e-05
0.000226062
0.000447403
0.000514417
0.00047035
0.000308019
0.000143951
7.61001e-05
6.486e-05
6.93081e-05
3.00156e-05
0.000204414
0.000402667
0.000455625
0.000407108
0.000263934
0.000128789
7.31541e-05
6.43695e-05
6.90827e-05
2.98209e-05
0.000153639
0.000297211
0.000317436
0.000266436
0.000173112
9.66242e-05
6.37883e-05
5.9988e-05
6.68474e-05
2.95012e-05
7.73791e-05
0.000126285
0.000110384
8.83675e-05
6.83721e-05
5.50108e-05
4.98905e-05
5.46204e-05
6.40401e-05
2.77741e-05
4.00773e-05
3.8991e-05
3.80839e-05
3.73681e-05
3.6831e-05
3.64004e-05
3.59291e-05
3.49956e-05
3.26406e-05
2.29337e-05
4.05257e-05
3.93465e-05
3.82583e-05
3.744e-05
3.68129e-05
3.62464e-05
3.55104e-05
3.42122e-05
3.15428e-05
2.26256e-05
0.000111031
0.000132448
0.000107477
8.05765e-05
6.11508e-05
5.22707e-05
5.34989e-05
6.41314e-05
7.46863e-05
2.76107e-05
0.000244276
0.000317385
0.0003007
0.000223663
0.00012985
7.60938e-05
6.18575e-05
6.75723e-05
7.6932e-05
2.81937e-05
0.000334059
0.00043822
0.000436842
0.000344316
0.000195279
9.77974e-05
6.97176e-05
7.13762e-05
7.7189e-05
2.84028e-05
0.000373022
0.000490669
0.000496426
0.000400355
0.000228057
0.000107641
7.19695e-05
7.19683e-05
7.72612e-05
2.85457e-05
0.000373022
0.000490669
0.000496426
0.000400355
0.000228057
0.000107641
7.19695e-05
7.19683e-05
7.72612e-05
2.85457e-05
0.000334058
0.00043822
0.000436843
0.000344316
0.000195279
9.77973e-05
6.97176e-05
7.13762e-05
7.7189e-05
2.84028e-05
0.000244276
0.000317385
0.0003007
0.000223663
0.00012985
7.60938e-05
6.18575e-05
6.75723e-05
7.69319e-05
2.81937e-05
0.000111031
0.000132448
0.000107477
8.05766e-05
6.11508e-05
5.22707e-05
5.34989e-05
6.41313e-05
7.46862e-05
2.76107e-05
4.05257e-05
3.93465e-05
3.82583e-05
3.744e-05
3.68129e-05
3.62464e-05
3.55104e-05
3.42122e-05
3.15428e-05
2.26256e-05
4.06951e-05
3.93289e-05
3.81645e-05
3.72852e-05
3.65741e-05
3.58549e-05
3.49126e-05
3.34591e-05
3.05898e-05
2.48528e-05
0.000131407
0.000125649
9.63381e-05
7.08857e-05
5.72358e-05
5.54624e-05
6.38153e-05
7.94323e-05
8.49298e-05
2.92621e-05
0.000293371
0.000301906
0.000255371
0.000168484
9.63677e-05
6.85989e-05
6.84012e-05
8.1453e-05
8.97403e-05
3.00744e-05
0.000408557
0.000428664
0.000381825
0.000264483
0.000140842
8.41483e-05
7.45691e-05
8.28513e-05
8.70982e-05
2.90103e-05
0.0004601
0.000485603
0.000439513
0.000311548
0.000163973
9.1182e-05
7.65623e-05
8.30487e-05
8.57e-05
2.82898e-05
0.0004601
0.000485603
0.000439513
0.000311548
0.000163973
9.1182e-05
7.65622e-05
8.30486e-05
8.56999e-05
2.82898e-05
0.000408557
0.000428665
0.000381825
0.000264483
0.000140842
8.41483e-05
7.45691e-05
8.28513e-05
8.70981e-05
2.90103e-05
0.000293371
0.000301906
0.000255371
0.000168485
9.63678e-05
6.85989e-05
6.84011e-05
8.14529e-05
8.97402e-05
3.00743e-05
0.000131407
0.000125649
9.63382e-05
7.08857e-05
5.72358e-05
5.54623e-05
6.38152e-05
7.94322e-05
8.49297e-05
2.92621e-05
4.06951e-05
3.93289e-05
3.81645e-05
3.72852e-05
3.65741e-05
3.58549e-05
3.49126e-05
3.34591e-05
3.05898e-05
2.48528e-05
4.03439e-05
3.89072e-05
3.77688e-05
3.68649e-05
3.60829e-05
3.52637e-05
3.42682e-05
3.28919e-05
3.07257e-05
2.69715e-05
0.000129391
0.000109662
8.31636e-05
6.5689e-05
6.08103e-05
6.66085e-05
8.02797e-05
9.31909e-05
8.10096e-05
2.97195e-05
0.000287435
0.000257888
0.000195242
0.000122307
8.15115e-05
7.32254e-05
8.25531e-05
9.79267e-05
9.48587e-05
3.10377e-05
0.000412948
0.000381879
0.000304886
0.000192516
0.000111544
8.43581e-05
8.57487e-05
9.62134e-05
9.31865e-05
3.00133e-05
0.000471916
0.000440423
0.000358333
0.000230014
0.000128295
9.00296e-05
8.72055e-05
9.52249e-05
9.10094e-05
2.90269e-05
0.000471917
0.000440423
0.000358333
0.000230014
0.000128295
9.00296e-05
8.72055e-05
9.52248e-05
9.10094e-05
2.90268e-05
0.000412949
0.000381879
0.000304886
0.000192516
0.000111544
8.43581e-05
8.57486e-05
9.62133e-05
9.31864e-05
3.00133e-05
0.000287435