/*--------------------------------*- C++ -*----------------------------------*\
  =========                 |
  \\      /  F ield         | OpenFOAM: The Open Source CFD Toolbox
   \\    /   O peration     | Website:  https://openfoam.org
    \\  /    A nd           | Version:  9
     \\/     M anipulation  |
\*---------------------------------------------------------------------------*/
FoamFile
{
    format      ascii;
    class       surfaceScalarField;
    location    "5";
    object      phi;
}
// * * * * * * * * * * * * * * * * * * * * * * * * * * * * * * * * * * * * * //

dimensions      [0 3 -1 0 0 0 0];

internalField   nonuniform List<scalar> 
101640
(
-6.53673e-07
-6.50427e-07
4.13041e-05
-7.71673e-08
-6.50127e-07
4.00736e-05
-6.43138e-08
-6.47041e-07
4.06342e-05
-2.83636e-08
-6.48604e-07
4.06127e-05
-1.15123e-08
-6.44234e-07
4.06274e-05
8.59582e-09
-6.44013e-07
4.06239e-05
4.61923e-08
-6.47975e-07
4.06104e-05
6.73579e-08
-6.47402e-07
4.06262e-05
6.46722e-07
-6.49968e-07
4.00706e-05
-6.4997e-07
4.12967e-05
-6.53531e-07
-7.36139e-08
4.00767e-05
-8.44512e-08
-8.16153e-08
3.88624e-05
-5.41313e-08
-9.66597e-08
3.94193e-05
-2.58401e-08
-9.94251e-08
3.94225e-05
-1.23182e-08
-9.62935e-08
3.94385e-05
4.67053e-09
-9.83304e-08
3.94373e-05
3.58499e-08
-9.7529e-08
3.94184e-05
7.35327e-08
-9.6537e-08
3.94115e-05
6.46266e-07
-7.91033e-08
3.88564e-05
-7.22417e-08
4.00685e-05
-6.51298e-07
-5.60777e-08
4.06338e-05
-1.01342e-07
-4.65613e-08
3.9415e-05
-6.89505e-08
-5.16001e-08
3.99225e-05
-3.494e-08
-5.49229e-08
3.99215e-05
-1.35934e-08
-5.2862e-08
3.99352e-05
9.95487e-09
-5.31337e-08
3.99313e-05
4.52105e-08
-5.22787e-08
3.99195e-05
9.04171e-08
-5.46795e-08
3.99129e-05
6.44076e-07
-4.59784e-08
3.94132e-05
-5.48478e-08
4.06267e-05
-6.51481e-07
-1.9375e-08
4.06148e-05
-1.02626e-07
-1.72034e-08
3.94218e-05
-5.73255e-08
-2.30451e-08
3.99261e-05
-3.04103e-08
-1.92601e-08
3.99374e-05
-1.33586e-08
-2.01962e-08
3.99503e-05
7.51027e-09
-2.06675e-08
3.99467e-05
4.13409e-08
-1.98762e-08
3.99338e-05
9.18572e-08
-2.18717e-08
3.99167e-05
6.43895e-07
-1.6358e-08
3.94183e-05
-1.87885e-08
4.06078e-05
-6.48003e-07
7.82281e-11
4.06286e-05
-1.02622e-07
3.28367e-10
3.94371e-05
-6.59127e-08
1.14918e-09
3.99391e-05
-3.20544e-08
-1.13885e-09
3.9948e-05
-1.35295e-08
-3.04128e-10
3.99616e-05
8.25596e-09
-4.1358e-11
3.99576e-05
4.20622e-08
-1.28281e-11
3.99463e-05
9.13774e-08
-1.33201e-11
3.99288e-05
6.40513e-07
-1.34416e-11
3.94345e-05
-8.75692e-12
4.06217e-05
-6.47835e-07
1.93965e-08
4.06285e-05
-1.01406e-07
1.70076e-08
3.94369e-05
-6.03273e-08
2.17072e-08
3.99384e-05
-3.08384e-08
2.06135e-08
3.99488e-05
-1.3365e-08
2.04365e-08
3.99618e-05
8.23788e-09
2.07325e-08
3.99576e-05
4.20564e-08
1.98854e-08
3.99463e-05
9.13795e-08
2.18207e-08
3.99288e-05
6.40521e-07
1.63232e-08
3.94345e-05
1.8771e-08
4.06217e-05
-6.51386e-07
5.60515e-08
4.06147e-05
-1.02502e-07
4.6451e-08
3.94217e-05
-5.85111e-08
5.15732e-08
3.99261e-05
-3.02748e-08
5.49828e-08
3.99374e-05
-1.32435e-08
5.29882e-08
3.99504e-05
7.46749e-09
5.31452e-08
3.99469e-05
4.12573e-08
5.22774e-08
3.99338e-05
9.18975e-08
5.47637e-08
3.99164e-05
6.43918e-07
4.59822e-08
3.94183e-05
5.48424e-08
4.06078e-05
-6.51282e-07
7.3584e-08
4.06337e-05
-1.01378e-07
8.15824e-08
3.9415e-05
-6.9023e-08
9.66823e-08
3.99225e-05
-3.49537e-08
9.93967e-08
3.99215e-05
-1.35508e-08
9.63124e-08
3.99353e-05
9.91045e-09
9.83207e-08
3.99314e-05
4.51583e-08
9.75403e-08
3.99195e-05
9.04362e-08
9.65774e-08
3.99129e-05
6.44098e-07
7.91259e-08
3.94132e-05
7.22515e-08
4.06267e-05
-6.53538e-07
6.50415e-07
4.00767e-05
-8.44715e-08
6.50116e-07
3.88624e-05
-5.4134e-08
6.4704e-07
3.94193e-05
-2.58541e-08
6.48602e-07
3.94225e-05
-1.23205e-08
6.44235e-07
3.94385e-05
4.64966e-09
6.44011e-07
3.94373e-05
3.58275e-08
6.47979e-07
3.94184e-05
7.35295e-08
6.47416e-07
3.94115e-05
6.46271e-07
6.4998e-07
3.88564e-05
6.49977e-07
4.00685e-05
-6.5368e-07
4.13041e-05
-7.71803e-08
4.00736e-05
-6.43284e-08
4.06342e-05
-2.8374e-08
4.06126e-05
-1.15206e-08
4.06274e-05
8.58477e-09
4.06239e-05
4.61803e-08
4.06104e-05
6.73518e-08
4.06262e-05
6.46721e-07
4.00706e-05
4.12967e-05
-4.64841e-07
-4.55142e-07
4.22241e-05
-4.1742e-08
-4.18151e-07
4.00687e-05
-1.55079e-07
-4.5168e-07
4.11992e-05
-4.00899e-08
-4.50265e-07
4.09479e-05
-3.41191e-08
-4.38886e-07
4.10603e-05
-2.82135e-08
-4.37707e-07
4.10557e-05
1.01585e-07
-4.48845e-07
4.09294e-05
6.06407e-09
-4.52446e-07
4.11742e-05
4.43249e-07
-4.17746e-07
4.00512e-05
-4.53882e-07
4.21938e-05
-4.28441e-07
-2.74085e-08
4.00774e-05
-1.85239e-08
-4.40453e-09
3.80387e-05
-1.10492e-07
-5.62154e-08
3.91158e-05
-3.15393e-08
-6.03512e-08
3.89537e-05
-3.50281e-08
-4.83977e-08
3.90515e-05
-3.0566e-08
-5.37873e-08
3.90489e-05
6.5157e-08
-5.20476e-08
3.89259e-05
-2.07489e-08
-5.83362e-08
3.91032e-05
4.05634e-07
2.3561e-09
3.80099e-05
-2.41498e-08
4.00444e-05
-4.63642e-07
-1.28148e-07
4.11981e-05
-7.74789e-08
-8.50297e-08
3.91095e-05
-1.36591e-07
-1.06793e-07
4.00322e-05
-6.07921e-08
-9.90061e-08
3.98843e-05
-3.71238e-08
-9.64633e-08
3.99596e-05
-1.67777e-08
-9.80227e-08
3.99551e-05
8.15398e-08
-9.4705e-08
3.98638e-05
3.82103e-08
-1.07561e-07
4.00055e-05
4.40249e-07
-8.21968e-08
3.90957e-05
-1.26563e-07
4.11693e-05
-4.59301e-07
-9.05204e-09
4.0955e-05
-7.14264e-08
-1.49942e-09
3.89504e-05
-1.24649e-07
-2.16566e-08
3.98942e-05
-5.10968e-08
-1.66127e-08
3.97815e-05
-3.70904e-08
-1.60323e-08
3.98558e-05
-2.44617e-08
-1.66057e-08
3.98526e-05
7.14082e-08
-1.44335e-08
3.97576e-05
3.22938e-08
-2.20375e-08
3.98703e-05
4.3614e-07
1.87226e-10
3.89321e-05
-8.0674e-09
4.09255e-05
-4.50333e-07
3.63695e-11
4.10698e-05
-6.80948e-08
7.93285e-11
3.90533e-05
-1.26393e-07
7.09377e-11
3.99757e-05
-5.28778e-08
-5.36305e-11
3.98579e-05
-3.70933e-08
-5.51228e-11
3.99298e-05
-2.21807e-08
-2.92366e-11
3.99261e-05
7.34712e-08
-8.91906e-11
3.98363e-05
3.02355e-08
7.71231e-11
3.99499e-05
4.2714e-07
5.3617e-12
3.90378e-05
4.84898e-12
4.10408e-05
-4.50298e-07
9.07338e-09
4.10698e-05
-6.80522e-08
1.49695e-09
3.90532e-05
-1.26775e-07
2.1539e-08
3.99756e-05
-5.28158e-08
1.67397e-08
3.9858e-05
-3.70507e-08
1.6115e-08
3.99299e-05
-2.24915e-08
1.69387e-08
3.99261e-05
7.27307e-08
1.46175e-08
3.98364e-05
3.01953e-08
2.15877e-08
3.99499e-05
4.27159e-07
-2.68536e-10
3.90378e-05
8.04805e-09
4.10409e-05
-4.59296e-07
1.28143e-07
4.0955e-05
-7.14335e-08
8.49726e-08
3.89503e-05
-1.24795e-07
1.06767e-07
3.98943e-05
-5.10994e-08
9.9048e-08
3.97814e-05
-3.68776e-08
9.64841e-08
3.98558e-05
-2.27995e-08
9.73435e-08
3.98524e-05
7.38618e-08
9.42194e-08
3.97576e-05
3.27068e-08
1.08606e-07
3.98706e-05
4.36181e-07
8.23728e-08
3.89322e-05
1.26543e-07
4.09255e-05
-4.63631e-07
2.73952e-08
4.11981e-05
-7.74975e-08
4.37667e-09
3.91094e-05
-1.36652e-07
5.62235e-08
4.00322e-05
-6.07836e-08
6.03454e-08
3.98844e-05
-3.70134e-08
4.83815e-08
3.99596e-05
-1.70055e-08
5.36566e-08
3.9955e-05
8.07631e-08
5.20949e-08
3.98638e-05
3.82514e-08
5.84015e-08
4.00056e-05
4.40316e-07
-2.2994e-09
3.90958e-05
2.41611e-08
4.11694e-05
-4.28444e-07
4.55135e-07
4.00774e-05
-1.85375e-08
4.18142e-07
3.80387e-05
-1.10498e-07
4.5168e-07
3.91158e-05
-3.15382e-08
4.50263e-07
3.89536e-05
-3.50287e-08
4.38884e-07
3.90515e-05
-3.06611e-08
4.37708e-07
3.90489e-05
6.51219e-08
4.48833e-07
3.89259e-05
-2.07547e-08
4.52461e-07
3.91033e-05
4.05645e-07
4.17759e-07
3.80099e-05
4.5389e-07
4.00445e-05
-4.64845e-07
4.22241e-05
-4.17509e-08
4.00687e-05
-1.55084e-07
4.11992e-05
-4.00959e-08
4.09479e-05
-3.41268e-08
4.10603e-05
-2.82201e-08
4.10557e-05
1.01567e-07
4.09294e-05
6.05599e-09
4.11742e-05
4.43248e-07
4.00512e-05
4.21938e-05
-2.54938e-07
-2.36869e-07
4.27159e-05
-5.7402e-08
-1.55581e-07
4.00267e-05
-1.65402e-07
-2.35801e-07
4.1543e-05
-5.72145e-08
-2.25147e-07
4.10649e-05
-5.98305e-08
-2.11306e-07
4.12742e-05
-5.75384e-08
-2.09937e-07
4.12634e-05
7.12962e-08
-2.24055e-07
4.10246e-05
-1.50389e-08
-2.33791e-07
4.14943e-05
2.14275e-07
-1.5636e-07
3.99782e-05
-2.34999e-07
4.26431e-05
-1.74158e-07
-2.31655e-08
4.00379e-05
1.9611e-08
4.56782e-08
3.76437e-05
-8.76723e-08
-4.21812e-08
3.90295e-05
-3.8183e-08
-3.98012e-08
3.87188e-05
-6.27263e-08
-2.42351e-08
3.8889e-05
-7.4094e-08
-3.0421e-08
3.88808e-05
-8.60312e-09
-2.56478e-08
3.8662e-05
-8.17147e-08
-5.73205e-08
3.89999e-05
1.32104e-07
4.82922e-08
3.75914e-05
-1.66527e-08
3.99582e-05
-2.58137e-07
-1.16566e-07
4.15497e-05
-9.94554e-08
-4.14532e-08
3.90379e-05
-1.42636e-07
-8.89741e-08
4.01222e-05
-8.75627e-08
-7.26084e-08
3.98621e-05
-6.40363e-08
-7.00797e-08
3.99819e-05
-4.12154e-08
-7.15382e-08
3.99734e-05
4.799e-08
-6.67258e-08
3.98157e-05
1.1873e-08
-9.12922e-08
4.00756e-05
2.13169e-07
-4.42729e-08
3.8987e-05
-1.12863e-07
4.14787e-05
-2.42652e-07
5.30018e-10
4.10805e-05
-7.1329e-08
1.7772e-08
3.87198e-05
-1.17352e-07
-1.97474e-08
3.9871e-05
-7.01241e-08
-9.29757e-09
3.96709e-05
-6.39087e-08
-8.77838e-09
3.97883e-05
-5.35953e-08
-9.48448e-09
3.97803e-05
2.52207e-08
-5.54611e-09
3.96176e-05
-9.85779e-09
-2.08635e-08
3.98349e-05
1.98245e-07
1.65602e-08
3.86632e-05
2.22545e-09
4.10086e-05
-2.32087e-07
1.52031e-11
4.13024e-05
-6.8818e-08
2.52099e-11
3.89077e-05
-1.22961e-07
9.32559e-12
4.00101e-05
-7.4192e-08
5.41832e-12
3.97999e-05
-6.38947e-08
-5.8189e-12
3.99108e-05
-4.98439e-08
-6.9385e-12
3.99026e-05
3.11322e-08
-4.31315e-11
3.97499e-05
-9.34204e-09
-1.12857e-10
3.99697e-05
1.88275e-07
5.8273e-11
3.88567e-05
7.23918e-11
4.12312e-05
-2.32085e-07
-5.12934e-10
4.13024e-05
-6.88259e-08
-1.77519e-08
3.89077e-05
-1.22995e-07
1.97396e-08
4.00101e-05
-7.419e-08
9.32814e-09
3.97999e-05
-6.38967e-08
8.79904e-09
3.99108e-05
-4.99071e-08
9.53344e-09
3.99026e-05
3.10515e-08
5.60642e-09
3.97497e-05
-9.16573e-09
2.09409e-08
3.9969e-05
1.88286e-07
-1.66838e-08
3.88571e-05
-2.27453e-09
4.12315e-05
-2.42653e-07
1.16573e-07
4.10805e-05
-7.13323e-08
4.14529e-08
3.87198e-05
-1.17364e-07
8.8978e-08
3.98711e-05
-7.01232e-08
7.26152e-08
3.96709e-05
-6.38959e-08
7.00905e-08
3.97883e-05
-5.36745e-08
7.14972e-08
3.97802e-05
2.5172e-08
6.67014e-08
3.96176e-05
-9.78436e-09
9.13974e-08
3.98351e-05
1.98274e-07
4.42656e-08
3.86632e-05
1.12825e-07
4.10087e-05
-2.58138e-07
2.31641e-08
4.15497e-05
-9.94655e-08
-4.56847e-08
3.90379e-05
-1.42654e-07
4.2185e-08
4.01222e-05
-8.75622e-08
3.98016e-08
3.98621e-05
-6.40301e-08
2.42351e-08
3.99819e-05
-4.13319e-08
3.04132e-08
3.99734e-05
4.78301e-08
2.5657e-08
3.98157e-05
1.18595e-08
5.73127e-08
4.00757e-05
2.13189e-07
-4.82892e-08
3.8987e-05
1.66439e-08
4.14788e-05
-1.7416e-07
2.36867e-07
4.00379e-05
1.96046e-08
1.55577e-07
3.76437e-05
-8.7675e-08
2.35802e-07
3.90295e-05
-3.81848e-08
2.25145e-07
3.87188e-05
-6.27297e-08
2.11307e-07
3.8889e-05
-7.41095e-08
2.09933e-07
3.88808e-05
-8.60871e-09
2.24053e-07
3.8662e-05
-8.17349e-08
2.33797e-07
3.89999e-05
1.32102e-07
1.56357e-07
3.75915e-05
2.34999e-07
3.99582e-05
-2.5494e-07
4.27159e-05
-5.74067e-08
4.00267e-05
-1.65406e-07
4.1543e-05
-5.72196e-08
4.10649e-05
-5.98341e-08
4.12742e-05
-5.75449e-08
4.12634e-05
7.12882e-08
4.10246e-05
-1.50416e-08
4.14943e-05
2.14272e-07
3.99782e-05
4.26431e-05
-1.43662e-07
-1.14286e-07
4.29738e-05
-9.50774e-08
-3.589e-09
3.99817e-05
-1.56589e-07
-1.23183e-07
4.17277e-05
-8.60498e-08
-1.00116e-07
4.10945e-05
-9.23002e-08
-8.89938e-08
4.13695e-05
-9.3537e-08
-8.55553e-08
4.13501e-05
1.76937e-08
-1.02892e-07
4.10163e-05
-2.5188e-08
-1.14659e-07
4.16519e-05
7.53858e-08
-5.36875e-09
3.9883e-05
-1.10539e-07
4.2829e-05
-3.63344e-08
-4.1678e-08
4.00016e-05
2.39013e-08
5.71626e-08
3.75227e-05
-6.20502e-08
-5.13703e-08
3.90436e-05
-5.91507e-08
-3.1735e-08
3.86475e-05
-9.85308e-08
-1.57249e-08
3.88551e-05
-1.19447e-07
-2.11773e-08
3.88373e-05
-1.15265e-07
-1.31083e-08
3.8568e-05
-1.18597e-07
-7.06486e-08
3.89592e-05
-6.17547e-08
7.05516e-08
3.74587e-05
-2.7738e-08
3.98136e-05
-1.57386e-07
-8.20433e-08
4.17474e-05
-1.27534e-07
6.64179e-09
3.90586e-05
-1.44357e-07
-5.96712e-08
4.01473e-05
-1.21695e-07
-3.75778e-08
3.98453e-05
-9.77842e-08
-3.6296e-08
3.99786e-05
-7.01948e-08
-3.72877e-08
3.9962e-05
-1.819e-10
-3.18689e-08
3.97645e-05
-4.45166e-09
-6.25488e-08
4.00717e-05
8.28146e-08
1.48759e-08
3.89554e-05
-7.7739e-08
4.16115e-05
-1.28189e-07
3.4182e-09
4.11233e-05
-8.10797e-08
2.39376e-08
3.86554e-05
-1.04057e-07
-2.07617e-08
3.98551e-05
-9.65875e-08
-4.25404e-09
3.96301e-05
-9.82361e-08
-4.283e-09
3.9758e-05
-9.13362e-08
-4.68954e-09
3.97408e-05
-5.532e-08
2.60423e-10
3.95495e-05
-4.37155e-08
-2.10134e-08
3.97818e-05
5.54815e-08
2.66697e-08
3.85522e-05
5.38086e-09
4.0981e-05
-1.20153e-07
7.11166e-12
4.1426e-05
-8.66544e-08
1.1738e-11
3.88982e-05
-1.16157e-07
4.10105e-12
4.00188e-05
-1.03948e-07
6.58195e-12
3.97834e-05
-9.81642e-08
-1.3064e-12
3.99007e-05
-8.42949e-08
-1.97618e-11
3.9884e-05
-3.69358e-08
-2.12845e-10
3.9703e-05
-3.3771e-08
-1.13545e-09
3.99466e-05
4.9347e-08
7.01193e-10
3.87995e-05
4.3905e-10
4.12855e-05
-1.20155e-07
-3.4069e-09
4.1426e-05
-8.66604e-08
-2.39169e-08
3.88982e-05
-1.16164e-07
2.07645e-08
4.00188e-05
-1.03951e-07
4.27088e-09
3.97834e-05
-9.81777e-08
4.29421e-09
3.99007e-05
-8.43959e-08
4.72096e-09
3.9884e-05
-3.7951e-08
-1.20501e-12
3.97031e-05
-3.97894e-08
2.24406e-08
3.99473e-05
4.75239e-08
-2.86129e-08
3.87991e-05
-5.82034e-09
4.12853e-05
-1.28191e-07
8.20499e-08
4.11233e-05
-8.10824e-08
-6.63548e-09
3.86554e-05
-1.04053e-07
5.9678e-08
3.98551e-05
-9.65921e-08
3.75818e-08
3.96301e-05
-9.82424e-08
3.63073e-08
3.97579e-05
-9.13735e-08
3.73265e-08
3.97407e-05
-5.51546e-08
3.1915e-08
3.95495e-05
-4.14822e-08
6.21338e-08
3.97817e-05
5.57321e-08
-1.4785e-08
3.85522e-05
7.76774e-08
4.09809e-05
-1.57388e-07
4.16792e-08
4.17474e-05
-1.27539e-07
-5.71615e-08
3.90586e-05
-1.44365e-07
5.13752e-08
4.01473e-05
-1.21698e-07
3.17347e-08
3.98453e-05
-9.77875e-08
1.57303e-08
3.99786e-05
-7.01823e-08
2.11867e-08
3.9962e-05
-7.33553e-11
1.3092e-08
3.97644e-05
-4.55558e-09
7.05933e-08
4.00717e-05
8.285e-08
-7.05766e-08
3.89554e-05
2.77392e-08
4.16115e-05
-3.6338e-08
1.14287e-07
4.00016e-05
2.38945e-08
3.58837e-09
3.75227e-05
-6.20521e-08
1.23185e-07
3.90436e-05
-5.91546e-08
1.00116e-07
3.86475e-05
-9.85338e-08
8.8997e-08
3.88551e-05
-1.19443e-07
8.55547e-08
3.88373e-05
-1.15256e-07
1.02887e-07
3.8568e-05
-1.18608e-07
1.14654e-07
3.89592e-05
-6.17613e-08
5.35837e-09
3.74587e-05
1.1054e-07
3.98136e-05
-1.43663e-07
4.29738e-05
-9.50809e-08
3.99817e-05
-1.56591e-07
4.17277e-05
-8.60537e-08
4.10945e-05
-9.23009e-08
4.13695e-05
-9.35368e-08
4.13501e-05
1.76918e-08
4.10163e-05
-2.51888e-08
4.16519e-05
7.53815e-08
3.9883e-05
4.2829e-05
-6.59264e-08
-2.36902e-08
4.30635e-05
-1.27769e-07
1.5216e-07
3.98914e-05
-1.64885e-07
-4.51287e-08
4.18099e-05
-1.27829e-07
-1.39204e-08
4.10713e-05
-1.35153e-07
-4.82894e-09
4.13816e-05
-1.34832e-07
3.00738e-09
4.13468e-05
-5.23989e-08
-1.86817e-08
4.09526e-05
-3.77589e-08
-3.35172e-08
4.16707e-05
-6.35779e-08
1.48432e-07
3.97604e-05
-1.75895e-08
4.2783e-05
7.76219e-08
-5.44887e-08
3.99548e-05
1.68488e-08
6.8051e-08
3.76676e-05
-6.04319e-08
-4.59972e-08
3.91218e-05
-9.55757e-08
-1.54537e-08
3.86842e-05
-1.44989e-07
-4.21582e-09
3.89039e-05
-1.69079e-07
-7.6348e-09
3.88721e-05
-1.88389e-07
-1.1155e-09
3.85697e-05
-1.62538e-07
-6.24313e-08
3.89623e-05
-2.42518e-07
8.42462e-08
3.76029e-05
-3.78427e-08
3.95914e-05
-9.36155e-08
-5.73763e-08
4.18439e-05
-1.52893e-07
4.94048e-08
3.91365e-05
-1.62667e-07
-4.00588e-08
4.01512e-05
-1.6324e-07
-1.59967e-08
3.98464e-05
-1.41756e-07
-1.54741e-08
3.99684e-05
-1.0985e-07
-1.56904e-08
3.99381e-05
-6.28941e-08
-1.05796e-08
3.9727e-05
-2.99304e-08
-4.03503e-08
4.00167e-05
-3.27111e-08
5.93904e-08
3.8983e-05
-5.12107e-08
4.15922e-05
-5.62678e-08
1.50668e-09
4.11207e-05
-8.84887e-08
2.64636e-08
3.87106e-05
-1.10034e-07
-2.094e-08
3.98575e-05
-1.33634e-07
-1.30547e-09
3.96391e-05
-1.42614e-07
-1.72822e-09
3.97532e-05
-1.37351e-07
-1.55832e-09
3.97214e-05
-1.27124e-07
2.68986e-09
3.9526e-05
-8.35176e-08
-1.9658e-08
3.97175e-05
-9.02912e-08
3.07991e-08
3.85875e-05
5.34991e-09
4.08341e-05
-5.12735e-08
3.44234e-12
4.14787e-05
-1.02204e-07
5.87524e-12
3.89756e-05
-1.28174e-07
1.40857e-12
4.00238e-05
-1.43388e-07
5.56197e-12
3.97973e-05
-1.42485e-07
3.65152e-13
3.98981e-05
-1.27482e-07
-6.96758e-12
3.98675e-05
-1.05878e-07
-3.83317e-11
3.96841e-05
-6.89534e-08
-1.035e-10
3.98901e-05
-9.79338e-08
6.65961e-11
3.88592e-05
7.92344e-11
4.11929e-05
-5.12765e-08
-1.4994e-09
4.14787e-05
-1.02208e-07
-2.64533e-08
3.89756e-05
-1.28176e-07
2.09427e-08
4.00238e-05
-1.4339e-07
1.31597e-09
3.97973e-05
-1.42492e-07
1.73418e-09
3.98981e-05
-1.27508e-07
1.56948e-09
3.98675e-05
-1.05929e-07
-2.64705e-09
3.96841e-05
-6.87282e-08
1.97755e-08
3.98902e-05
-9.79205e-08
-3.08327e-08
3.88592e-05
-5.3831e-09
4.11928e-05
-5.62698e-08
5.73816e-08
4.11206e-05
-8.84912e-08
-4.93997e-08
3.87106e-05
-1.10028e-07
4.00655e-08
3.98575e-05
-1.33638e-07
1.59953e-08
3.9639e-05
-1.42619e-07
1.54779e-08
3.97532e-05
-1.37359e-07
1.56966e-08
3.97213e-05
-1.27109e-07
1.05966e-08
3.9526e-05
-8.34798e-08
4.03581e-08
3.97175e-05
-9.02759e-08
-5.93981e-08
3.85875e-05
5.11785e-08
4.08341e-05
-9.36168e-08
5.44917e-08
4.18439e-05
-1.52896e-07
-6.80483e-08
3.91365e-05
-1.62669e-07
4.60022e-08
4.01512e-05
-1.63242e-07
1.54551e-08
3.98464e-05
-1.41757e-07
4.21899e-09
3.99684e-05
-1.09846e-07
7.63931e-09
3.99381e-05
-6.28785e-08
1.11199e-09
3.9727e-05
-2.99505e-08
6.24278e-08
4.00167e-05
-3.27055e-08
-8.42643e-08
3.8983e-05
3.78282e-08
4.15922e-05
7.76219e-08
2.36916e-08
3.99548e-05
1.68479e-08
-1.5216e-07
3.76676e-05
-6.04319e-08
4.51317e-08
3.91218e-05
-9.55776e-08
1.39193e-08
3.86842e-05
-1.4499e-07
4.83232e-09
3.89039e-05
-1.69077e-07
-3.00705e-09
3.88721e-05
-1.88383e-07
1.86705e-08
3.85697e-05
-1.62534e-07
3.35136e-08
3.89623e-05
-2.4252e-07
-1.48438e-07
3.76028e-05
1.75841e-08
3.95914e-05
-6.59272e-08
4.30635e-05
-1.27771e-07
3.98914e-05
-1.64886e-07
4.18099e-05
-1.27832e-07
4.10713e-05
-1.35152e-07
4.13816e-05
-1.34828e-07
4.13468e-05
-5.2401e-08
4.09526e-05
-3.77594e-08
4.16708e-05
-6.3579e-08
3.97604e-05
4.2783e-05
-2.07891e-08
6.59796e-08
4.30183e-05
-1.61559e-07
2.38588e-07
3.97936e-05
-1.88836e-07
1.76822e-08
4.18195e-05
-1.81668e-07
7.73191e-08
4.09868e-05
-1.9175e-07
8.58137e-08
4.13059e-05
-1.87897e-07
9.90319e-08
4.12439e-05
-1.21264e-07
6.70549e-08
4.08189e-05
-6.62786e-08
3.95306e-08
4.15762e-05
-2.02529e-07
2.35314e-07
3.96613e-05
8.19376e-08
4.24986e-05
1.38123e-07
-6.06667e-08
3.99433e-05
-2.95421e-09
7.86735e-08
3.79686e-05
-8.62071e-08
-3.27032e-08
3.92554e-05
-1.49624e-07
1.32786e-09
3.88236e-05
-2.04994e-07
1.13029e-08
3.90338e-05
-2.27353e-07
1.05664e-08
3.89829e-05
-2.53537e-07
1.19367e-08
3.8651e-05
-2.14555e-07
-4.20992e-08
3.90049e-05
-3.71066e-07
9.4215e-08
3.79005e-05
-3.72756e-08
3.93395e-05
-5.83252e-08
-4.03666e-08
4.1882e-05
-1.77067e-07
6.90538e-08
3.92649e-05
-1.93699e-07
-2.64866e-08
4.01616e-05
-2.14161e-07
2.68684e-10
3.98679e-05
-1.9936e-07
1.01116e-09
3.99639e-05
-1.65816e-07
1.98762e-09
3.99131e-05
-1.28397e-07
4.13959e-09
3.96973e-05
-7.03775e-08
-2.37119e-08
3.99403e-05
-1.63369e-07
7.81958e-08
3.90921e-05
-3.16106e-08
4.14232e-05
-1.72487e-08
-9.93133e-10
4.10985e-05
-1.04539e-07
2.70639e-08
3.88399e-05
-1.38083e-07
-1.83174e-08
3.98829e-05
-1.84462e-07
1.62481e-09
3.96841e-05
-2.0061e-07
1.4695e-09
3.97689e-05
-1.95526e-07
2.37262e-09
3.97159e-05
-1.91941e-07
5.25095e-09
3.95213e-05
-1.39528e-07
-1.48058e-08
3.96562e-05
-2.19203e-07
3.21036e-08
3.87133e-05
4.80258e-09
4.05785e-05
-1.46255e-08
1.68201e-12
4.14924e-05
-1.22325e-07
3.4104e-12
3.91103e-05
-1.58122e-07
1.00671e-12
4.00413e-05
-1.94383e-07
3.86577e-12
3.98352e-05
-2.00071e-07
1.40722e-12
3.99052e-05
-1.84748e-07
-2.82507e-13
3.98545e-05
-1.69615e-07
-4.81529e-12
3.96742e-05
-1.19646e-07
-7.83982e-12
3.98254e-05
-2.23912e-07
1.26185e-11
3.89956e-05
1.8238e-11
4.09737e-05
-1.46276e-08
9.97645e-10
4.14924e-05
-1.22328e-07
-2.70572e-08
3.91103e-05
-1.58123e-07
1.83202e-08
4.00413e-05
-1.94384e-07
-1.6179e-09
3.98352e-05
-2.00073e-07
-1.46533e-09
3.99052e-05
-1.84751e-07
-2.36741e-09
3.98545e-05
-1.69615e-07
-5.24282e-09
3.96742e-05
-1.19626e-07
1.48221e-08
3.98254e-05
-2.23901e-07
-3.20951e-08
3.89956e-05
-4.79561e-09
4.09737e-05
-1.725e-08
4.03706e-08
4.10985e-05
-1.04541e-07
-6.90495e-08
3.88399e-05
-1.38079e-07
2.64914e-08
3.98829e-05
-1.84464e-07
-2.68841e-10
3.96841e-05
-2.00612e-07
-1.00819e-09
3.97689e-05
-1.95528e-07
-1.984e-09
3.97159e-05
-1.91938e-07
-4.13345e-09
3.95213e-05
-1.39518e-07
2.37215e-08
3.96562e-05
-2.19199e-07
-7.81961e-08
3.87133e-05
3.16048e-08
4.05785e-05
-5.83259e-08
6.06696e-08
4.1882e-05
-1.77068e-07
-7.86708e-08
3.92649e-05
-1.93699e-07
3.2707e-08
4.01616e-05
-2.14163e-07
-1.32682e-09
3.98679e-05
-1.99361e-07
-1.13006e-08
3.99639e-05
-1.65815e-07
-1.05633e-08
3.99131e-05
-1.28392e-07
-1.19355e-08
3.96973e-05
-7.037e-08
4.21033e-08
3.99403e-05
-1.63364e-07
-9.42187e-08
3.90921e-05
3.727e-08
4.14232e-05
1.38123e-07
-6.59783e-08
3.99433e-05
-2.95477e-09
-2.38588e-07
3.79686e-05
-8.62062e-08
-1.76782e-08
3.92554e-05
-1.49624e-07
-7.73209e-08
3.88236e-05
-2.04994e-07
-8.58107e-08
3.90338e-05
-2.27352e-07
-9.90329e-08
3.89829e-05
-2.53535e-07
-6.70541e-08
3.8651e-05
-2.14551e-07
-3.95279e-08
3.90049e-05
-3.71064e-07
-2.35317e-07
3.79005e-05
-8.19393e-08
3.93395e-05
-2.07897e-08
4.30183e-05
-1.6156e-07
3.97936e-05
-1.88836e-07
4.18195e-05
-1.81669e-07
4.09868e-05
-1.91749e-07
4.13059e-05
-1.87896e-07
4.12439e-05
-1.21264e-07
4.08189e-05
-6.6277e-08
4.15762e-05
-2.02529e-07
3.96613e-05
4.24986e-05
-8.36116e-09
1.15723e-07
4.29109e-05
-2.01321e-07
2.73709e-07
3.97128e-05
-2.30639e-07
6.82297e-08
4.17806e-05
-2.52001e-07
1.19603e-07
4.08886e-05
-2.67106e-07
1.28644e-07
4.11923e-05
-2.59446e-07
1.43981e-07
4.10923e-05
-2.00317e-07
1.09083e-07
4.06507e-05
-1.12148e-07
8.80191e-08
4.14e-05
-3.07766e-07
2.74384e-07
3.95826e-05
1.3838e-07
4.20524e-05
1.40663e-07
-6.52464e-08
3.99836e-05
-4.78292e-08
8.86035e-08
3.83422e-05
-1.36552e-07
-1.8225e-08
3.94306e-05
-2.2422e-07
1.34996e-08
3.90174e-05
-2.83951e-07
2.14253e-08
3.92008e-05
-3.03332e-07
2.31612e-08
3.91231e-05
-3.2738e-07
1.89436e-08
3.87652e-05
-2.78163e-07
-1.86209e-08
3.90623e-05
-4.65416e-07
1.03446e-07
3.82587e-05
-3.39848e-08
3.90465e-05
-5.41088e-08
-2.65753e-08
4.18974e-05
-2.07749e-07
8.02821e-08
3.94268e-05
-2.38798e-07
-1.55305e-08
4.01899e-05
-2.79826e-07
1.27001e-08
3.99097e-05
-2.7589e-07
1.51401e-08
3.99662e-05
-2.44145e-07
1.81344e-08
3.98864e-05
-2.10473e-07
1.6808e-08
3.96658e-05
-1.33334e-07
-9.88763e-09
3.98544e-05
-2.60792e-07
9.04502e-08
3.92325e-05
-1.49691e-08
4.11434e-05
-1.04285e-08
-2.51422e-09
4.10849e-05
-1.36896e-07
2.70373e-08
3.90196e-05
-1.89478e-07
-1.39781e-08
3.99339e-05
-2.54464e-07
4.14258e-09
3.97576e-05
-2.78019e-07
5.01591e-09
3.98026e-05
-2.72233e-07
5.94724e-09
3.97223e-05
-2.66208e-07
6.87606e-09
3.95252e-05
-2.07639e-07
-7.7903e-09
3.95955e-05
-3.17022e-07
3.35655e-08
3.88796e-05
5.00683e-09
4.02415e-05
-8.71065e-09
7.53103e-13
4.14986e-05
-1.55064e-07
2.10707e-12
3.92837e-05
-2.07255e-07
1.21579e-12
4.00795e-05
-2.62524e-07
2.50425e-12
3.98946e-05
-2.76525e-07
1.52792e-12
3.99242e-05
-2.62392e-07
2.13951e-12
3.98463e-05
-2.46912e-07
1.28602e-12
3.96656e-05
-1.8651e-07
1.49983e-12
3.97572e-05
-3.20321e-07
4.5402e-12
3.9163e-05
8.95339e-12
4.06584e-05
-8.71262e-09
2.5174e-09
4.14986e-05
-1.55066e-07
-2.70328e-08
3.92837e-05
-2.07256e-07
1.3981e-08
4.00795e-05
-2.62524e-07
-4.13791e-09
3.98946e-05
-2.76525e-07
-5.01342e-09
3.99242e-05
-2.62392e-07
-5.94052e-09
3.98463e-05
-2.46911e-07
-6.86942e-09
3.96656e-05
-1.86505e-07
7.79855e-09
3.97572e-05
-3.20314e-07
-3.35605e-08
3.9163e-05
-4.98777e-09
4.06584e-05
-1.04289e-08
2.6578e-08
4.10849e-05
-1.36898e-07
-8.02786e-08
3.90196e-05
-1.89476e-07
1.55338e-08
3.99339e-05
-2.54464e-07
-1.27009e-08
3.97576e-05
-2.78021e-07
-1.51385e-08
3.98026e-05
-2.72233e-07
-1.81321e-08
3.97223e-05
-2.66207e-07
-1.68054e-08
3.95252e-05
-2.07638e-07
9.89801e-09
3.95955e-05
-3.17025e-07
-9.0449e-08
3.88796e-05
1.49751e-08
4.02415e-05
-5.41093e-08
6.52487e-08
4.18974e-05
-2.0775e-07
-8.86012e-08
3.94268e-05
-2.38796e-07
1.82276e-08
4.01899e-05
-2.79827e-07
-1.34971e-08
3.99097e-05
-2.7589e-07
-2.14234e-08
3.99662e-05
-2.44144e-07
-2.31587e-08
3.98864e-05
-2.10472e-07
-1.89414e-08
3.96658e-05
-1.33329e-07
1.86265e-08
3.98544e-05
-2.60791e-07
-1.03446e-07
3.92325e-05
3.3985e-08
4.11434e-05
1.40664e-07
-1.15722e-07
3.99836e-05
-4.78292e-08
-2.73708e-07
3.83422e-05
-1.36552e-07
-6.82265e-08
3.94306e-05
-2.24219e-07
-1.19605e-07
3.90174e-05
-2.83951e-07
-1.28641e-07
3.92007e-05
-3.03331e-07
-1.43982e-07
3.91231e-05
-3.27379e-07
-1.09082e-07
3.87652e-05
-2.7816e-07
-8.80162e-08
3.90623e-05
-4.65415e-07
-2.74385e-07
3.82586e-05
-1.3838e-07
3.90465e-05
-8.36153e-09
4.29109e-05
-2.01322e-07
3.97128e-05
-2.30638e-07
4.17806e-05
-2.52001e-07
4.08886e-05
-2.67105e-07
4.11923e-05
-2.59445e-07
4.10923e-05
-2.00317e-07
4.06507e-05
-1.12147e-07
4.14e-05
-3.07765e-07
3.95826e-05
4.20524e-05
-1.934e-08
1.38211e-07
4.2792e-05
-2.54641e-07
2.7796e-07
3.96702e-05
-2.97104e-07
8.93509e-08
4.17337e-05
-3.45995e-07
1.35468e-07
4.0802e-05
-3.68493e-07
1.46619e-07
4.10682e-05
-3.57553e-07
1.63716e-07
4.09176e-05
-2.98259e-07
1.24161e-07
4.04672e-05
-1.79347e-07
1.12676e-07
4.11685e-05
-4.05308e-07
2.86257e-07
3.95223e-05
1.69651e-07
4.14775e-05
1.05312e-07
-6.92949e-08
4.00858e-05
-1.04719e-07
9.70156e-08
3.87332e-05
-2.14093e-07
-3.63606e-09
3.96329e-05
-3.24389e-07
2.23507e-08
3.92408e-05
-3.89824e-07
3.15845e-08
3.93812e-05
-4.05438e-07
3.59412e-08
3.92665e-05
-4.19959e-07
2.59107e-08
3.8878e-05
-3.59432e-07
3.34945e-09
3.91111e-05
-5.49956e-07
1.13318e-07
3.86221e-05
-2.81694e-08
3.86943e-05
-7.47048e-08
-1.67736e-08
4.19196e-05
-2.53474e-07
8.53808e-08
3.96172e-05
-3.07107e-07
-7.11003e-09
4.0247e-05
-3.70392e-07
2.15395e-08
3.99738e-05
-3.79421e-07
2.52771e-08
3.99815e-05
-3.49968e-07
2.94626e-08
3.98635e-05
-3.12971e-07
2.45158e-08
3.96302e-05
-2.19216e-07
3.05828e-09
3.9761e-05
-3.53808e-07
9.80037e-08
3.93824e-05
-1.12368e-09
4.07625e-05
-2.89339e-08
-4.17281e-09
4.11012e-05
-1.88687e-07
2.63355e-08
3.92384e-05
-2.68055e-07
-9.41942e-09
4.00156e-05
-3.50376e-07
5.57514e-09
3.98559e-05
-3.81895e-07
7.15898e-09
3.98522e-05
-3.74983e-07
9.09023e-09
3.97358e-05
-3.60009e-07
8.70809e-09
3.9526e-05
-2.92835e-07
-3.36976e-10
3.95317e-05
-4.08165e-07
3.53493e-08
3.90576e-05
6.40876e-09
3.98258e-05
-2.7165e-08
2.36099e-13
4.15216e-05
-2.05707e-07
1.27246e-12
3.94886e-05
-2.81566e-07
1.23419e-12
4.01459e-05
-3.55762e-07
1.75362e-12
3.99744e-05
-3.79898e-07
1.36889e-12
3.99555e-05
-3.66976e-07
1.41612e-12
3.98425e-05
-3.44494e-07
1.1451e-12
3.96518e-05
-2.72805e-07
2.16691e-12
3.96852e-05
-4.10928e-07
2.09889e-12
3.93364e-05
3.06453e-12
4.02539e-05
-2.71668e-08
4.17439e-09
4.15216e-05
-2.05708e-07
-2.63326e-08
3.94886e-05
-2.81566e-07
9.42231e-09
4.01459e-05
-3.55762e-07
-5.57161e-09
3.99744e-05
-3.79898e-07
-7.15646e-09
3.99555e-05
-3.66976e-07
-9.08776e-09
3.98425e-05
-3.44492e-07
-8.70565e-09
3.96518e-05
-2.72803e-07
3.41834e-10
3.96852e-05
-4.10925e-07
-3.5346e-08
3.93364e-05
-6.40396e-09
4.02539e-05
-2.8934e-08
1.67752e-08
4.11012e-05
-1.88688e-07
-8.53781e-08
3.92384e-05
-2.68054e-07
7.11461e-09
4.00156e-05
-3.50376e-07
-2.15393e-08
3.98559e-05
-3.81896e-07
-2.52758e-08
3.98522e-05
-3.74983e-07
-2.94613e-08
3.97357e-05
-3.6001e-07
-2.45141e-08
3.9526e-05
-2.92834e-07
-3.05563e-09
3.95317e-05
-4.08167e-07
-9.80024e-08
3.90576e-05
1.12513e-09
3.98258e-05
-7.47053e-08
6.92965e-08
4.19196e-05
-2.53475e-07
-9.70137e-08
3.96172e-05
-3.07105e-07
3.6387e-09
4.02471e-05
-3.70392e-07
-2.23498e-08
3.99738e-05
-3.79421e-07
-3.15832e-08
3.99815e-05
-3.49968e-07
-3.59398e-08
3.98634e-05
-3.1297e-07
-2.59096e-08
3.96302e-05
-2.19214e-07
-3.34622e-09
3.9761e-05
-3.53808e-07
-1.13317e-07
3.93824e-05
2.81701e-08
4.07625e-05
1.05312e-07
-1.38211e-07
4.00858e-05
-1.04718e-07
-2.77959e-07
3.87332e-05
-2.14092e-07
-8.93481e-08
3.96329e-05
-3.24388e-07
-1.35469e-07
3.92408e-05
-3.89824e-07
-1.46617e-07
3.93812e-05
-4.05438e-07
-1.63717e-07
3.92665e-05
-4.19958e-07
-1.24161e-07
3.8878e-05
-3.5943e-07
-1.12674e-07
3.91111e-05
-5.49954e-07
-2.86257e-07
3.86221e-05
-1.69651e-07
3.86943e-05
-1.934e-08
4.2792e-05
-2.54641e-07
3.96702e-05
-2.97103e-07
4.17337e-05
-3.45995e-07
4.0802e-05
-3.68492e-07
4.10682e-05
-3.57553e-07
4.09176e-05
-2.98259e-07
4.04672e-05
-1.79346e-07
4.11685e-05
-4.05308e-07
3.95223e-05
4.14775e-05
-4.89147e-08
1.50174e-07
4.26908e-05
-3.28652e-07
2.68618e-07
3.96813e-05
-3.95975e-07
1.00041e-07
4.1701e-05
-4.7347e-07
1.41335e-07
4.07382e-05
-5.05829e-07
1.54955e-07
4.09456e-05
-4.91421e-07
1.73705e-07
4.07295e-05
-4.23496e-07
1.29667e-07
4.02696e-05
-2.75058e-07
1.30431e-07
4.08896e-05
-5.16767e-07
2.88497e-07
3.94755e-05
1.92169e-07
4.07685e-05
4.83199e-08
-7.27235e-08
4.02604e-05
-1.83015e-07
1.02767e-07
3.91304e-05
-3.2412e-07
6.54385e-09
3.98675e-05
-4.58791e-07
3.14205e-08
3.94854e-05
-5.32373e-07
4.16899e-08
3.95681e-05
-5.43387e-07
4.8751e-08
3.94025e-05
-5.42396e-07
3.32755e-08
3.89734e-05
-4.66141e-07
1.86187e-08
3.91467e-05
-6.49075e-07
1.23907e-07
3.89696e-05
-1.831e-08
3.82557e-05
-1.12432e-07
-1.18063e-08
4.19711e-05
-3.21224e-07
8.55319e-08
3.98432e-05
-4.09131e-07
-2.99512e-10
4.03418e-05
-4.96544e-07
2.62e-08
4.00665e-05
-5.19645e-07
3.15908e-08
4.00147e-05
-4.90514e-07
3.69961e-08
3.98461e-05
-4.42279e-07
2.91435e-08
3.95861e-05
-3.33903e-07
1.82424e-08
3.9653e-05
-4.6345e-07
1.01984e-07
3.95339e-05
1.52486e-08
4.02655e-05
-6.75426e-08
-6.07425e-09
4.1163e-05
-2.64118e-07
2.49742e-08
3.94955e-05
-3.78764e-07
-5.43469e-09
4.01354e-05
-4.80841e-07
7.08463e-09
3.99771e-05
-5.22231e-07
9.9524e-09
3.99152e-05
-5.13613e-07
1.2617e-08
3.97515e-05
-4.85132e-07
1.10114e-08
3.95157e-05
-4.03858e-07
4.98214e-09
3.94637e-05
-5.15416e-07
3.74908e-08
3.92336e-05
8.95634e-09
3.93167e-05
-6.55064e-08
-4.10961e-14
4.1581e-05
-2.79555e-07
6.4073e-13
3.97276e-05
-3.88518e-07
9.08944e-13
4.02495e-05
-4.84043e-07
1.05165e-12
4.0077e-05
-5.19746e-07
1.04789e-12
4.00012e-05
-5.06918e-07
1.11559e-12
3.98423e-05
-4.71543e-07
1.00631e-12
3.96275e-05
-3.86509e-07
1.95936e-12
3.96051e-05