/*--------------------------------*- C++ -*----------------------------------*\
  =========                 |
  \\      /  F ield         | OpenFOAM: The Open Source CFD Toolbox
   \\    /   O peration     | Website:  https://openfoam.org
    \\  /    A nd           | Version:  9
     \\/     M anipulation  |
\*---------------------------------------------------------------------------*/
FoamFile
{
    format      ascii;
    class       volVectorField;
    location    "5";
    object      U;
}
// * * * * * * * * * * * * * * * * * * * * * * * * * * * * * * * * * * * * * //

dimensions      [0 1 -1 0 0 0 0];

internalField   nonuniform List<vector> 
36000
(
(0.0223803 -0.401698 0.0223247)
(-0.00413678 -0.400056 0.0218956)
(0.00358776 -0.400777 0.0216332)
(-0.00118035 -0.400866 0.0216035)
(0.00125966 -0.400838 0.0215687)
(-0.00109328 -0.400828 0.0215591)
(0.00138391 -0.400864 0.0216166)
(-0.00340501 -0.400763 0.0216238)
(0.00418367 -0.400053 0.0219025)
(-0.0222891 -0.401685 0.0223239)
(0.0219514 -0.400063 -0.00413865)
(-0.00373099 -0.397487 -0.00373298)
(0.00335612 -0.398509 -0.00351629)
(-0.00114383 -0.398613 -0.00345416)
(0.00120142 -0.398591 -0.00350891)
(-0.00101139 -0.398588 -0.00349454)
(0.00136708 -0.398607 -0.00347549)
(-0.00316471 -0.398493 -0.00350955)
(0.00379678 -0.397479 -0.00375161)
(-0.0218672 -0.400052 -0.00414903)
(0.021693 -0.400777 0.00349109)
(-0.00350733 -0.398498 0.00326231)
(0.00343568 -0.399742 0.00331339)
(-0.00100739 -0.39982 0.00332098)
(0.00117706 -0.399806 0.00329776)
(-0.000981106 -0.399793 0.00331278)
(0.00123575 -0.399818 0.00329188)
(-0.00322741 -0.399721 0.00332081)
(0.00355109 -0.398502 0.00324332)
(-0.0215936 -0.400766 0.00348235)
(0.0216686 -0.400868 -0.0012803)
(-0.00346635 -0.398607 -0.00125344)
(0.00342045 -0.39983 -0.00111891)
(-0.00104824 -0.399931 -0.00115852)
(0.00116852 -0.399914 -0.00115837)
(-0.000974415 -0.399902 -0.00115947)
(0.00128002 -0.399922 -0.00116211)
(-0.00320666 -0.399811 -0.00112421)
(0.00351857 -0.398608 -0.00125594)
(-0.0215747 -0.400858 -0.00128285)
(0.0216272 -0.400838 0.00121443)
(-0.0034965 -0.398583 0.00114799)
(0.00342726 -0.399814 0.00111867)
(-0.00104507 -0.399908 0.00112584)
(0.00117459 -0.399895 0.00112333)
(-0.000979062 -0.399881 0.00112772)
(0.00127314 -0.399906 0.00111734)
(-0.00321635 -0.399791 0.00112435)
(0.00354371 -0.398587 0.00114166)
(-0.0215284 -0.400828 0.00121197)
(0.0216262 -0.400838 -0.00121532)
(-0.00350031 -0.398582 -0.00115029)
(0.00343268 -0.399811 -0.00112349)
(-0.00103974 -0.399911 -0.0011215)
(0.00117063 -0.399896 -0.00112156)
(-0.000980157 -0.399882 -0.00112766)
(0.00127304 -0.399906 -0.00111726)
(-0.00321635 -0.399792 -0.00112394)
(0.00354367 -0.398587 -0.00114141)
(-0.0215285 -0.400828 -0.00121182)
(0.0216681 -0.400868 0.00128021)
(-0.00346638 -0.398606 0.00125424)
(0.00342161 -0.399829 0.00112272)
(-0.00104697 -0.399931 0.0011544)
(0.0011682 -0.399914 0.00115726)
(-0.000975008 -0.399903 0.0011592)
(0.00128047 -0.399922 0.00116207)
(-0.00320649 -0.399809 0.00112444)
(0.00351837 -0.398608 0.00125607)
(-0.0215748 -0.400858 0.00128295)
(0.021693 -0.400777 -0.00349088)
(-0.00350724 -0.398498 -0.00326162)
(0.0034362 -0.399742 -0.00331293)
(-0.00100699 -0.39982 -0.00332141)
(0.00117695 -0.399806 -0.00329847)
(-0.000981122 -0.399794 -0.00331276)
(0.00123615 -0.399818 -0.00329189)
(-0.00322724 -0.399721 -0.00332104)
(0.00355091 -0.398502 -0.00324339)
(-0.0215936 -0.400766 -0.00348236)
(0.0219514 -0.400062 0.00413881)
(-0.00373083 -0.397487 0.00373321)
(0.00335617 -0.398509 0.00351644)
(-0.00114376 -0.398613 0.00345391)
(0.00120157 -0.398592 0.00350873)
(-0.0010113 -0.398588 0.00349453)
(0.00136729 -0.398607 0.00347542)
(-0.0031646 -0.398493 0.00350926)
(0.00379679 -0.397479 0.00375146)
(-0.0218672 -0.400052 0.00414896)
(0.0223803 -0.401698 -0.0223246)
(-0.0041367 -0.400056 -0.0218955)
(0.00358782 -0.400777 -0.0216333)
(-0.00118028 -0.400866 -0.0216034)
(0.00125977 -0.400838 -0.0215687)
(-0.00109319 -0.400828 -0.021559)
(0.00138403 -0.400864 -0.0216166)
(-0.00340493 -0.400763 -0.0216238)
(0.0041837 -0.400053 -0.0219025)
(-0.022289 -0.401685 -0.022324)
(0.0216912 -0.41572 0.0214999)
(-0.00899675 -0.400541 0.0194575)
(0.00843272 -0.407932 0.018989)
(-0.00372871 -0.40697 0.0187731)
(0.00397605 -0.407432 0.0186716)
(-0.00340839 -0.407393 0.0186295)
(0.00442203 -0.40689 0.0188149)
(-0.00783743 -0.407793 0.018958)
(0.00915955 -0.400457 0.0194895)
(-0.0213795 -0.415564 0.0214995)
(0.0196527 -0.400589 -0.00900808)
(-0.00775676 -0.385637 -0.00778111)
(0.00670489 -0.393015 -0.00649615)
(-0.00313731 -0.392494 -0.00627843)
(0.00326831 -0.392937 -0.00643849)
(-0.00265045 -0.392918 -0.00639607)
(0.00386386 -0.392372 -0.00635902)
(-0.00609551 -0.392922 -0.00646585)
(0.00798479 -0.385505 -0.0078385)
(-0.0193637 -0.400411 -0.00903945)
(0.0191938 -0.407927 0.00812338)
(-0.00644601 -0.392963 0.00641171)
(0.0064946 -0.399568 0.00612682)
(-0.00226712 -0.399041 0.00595745)
(0.00282533 -0.399416 0.00587741)
(-0.00221103 -0.399376 0.00592041)
(0.00298339 -0.398953 0.00587768)
(-0.00586201 -0.399412 0.00615337)
(0.0066104 -0.392909 0.00635233)
(-0.0188479 -0.407778 0.00809473)
(0.0189867 -0.40701 -0.00406536)
(-0.006309 -0.392474 -0.00349059)
(0.00625339 -0.399106 -0.00262121)
(-0.002308 -0.398752 -0.00264251)
(0.00271465 -0.399127 -0.0026299)
(-0.00209093 -0.399094 -0.00263041)
(0.00302595 -0.398641 -0.00265888)
(-0.00561354 -0.39896 -0.00263059)
(0.00650045 -0.392391 -0.0034968)
(-0.0186668 -0.406863 -0.00407628)
(0.0188658 -0.407475 0.00381887)
(-0.00639062 -0.392929 0.00309262)
(0.00626299 -0.399499 0.00262786)
(-0.00227212 -0.39912 0.00254251)
(0.00270631 -0.399491 0.00251982)
(-0.00209128 -0.399455 0.00253166)
(0.00298799 -0.399029 0.00251907)
(-0.00561945 -0.399342 0.00263855)
(0.00656055 -0.392861 0.00306951)
(-0.018527 -0.40733 0.00381162)
(0.0188657 -0.407474 -0.00381934)
(-0.00639082 -0.392928 -0.00309343)
(0.00626373 -0.399495 -0.0026282)
(-0.00227154 -0.399124 -0.00254261)
(0.00270593 -0.399493 -0.00251973)
(-0.00209114 -0.399455 -0.0025329)
(0.00298796 -0.399029 -0.00251908)
(-0.00561969 -0.399341 -0.00263693)
(0.00656054 -0.392861 -0.00306918)
(-0.018527 -0.407331 -0.00381155)
(0.0189865 -0.407009 0.00406522)
(-0.00630845 -0.392473 0.00349053)
(0.00625324 -0.399106 0.00262136)
(-0.00230812 -0.398752 0.00264206)
(0.00271389 -0.399127 0.00262955)
(-0.00209115 -0.399094 0.00262975)
(0.00302884 -0.398641 0.00265861)
(-0.00561293 -0.39896 0.00263116)
(0.00649888 -0.392392 0.00349703)
(-0.018667 -0.406863 0.00407639)
(0.0191938 -0.407927 -0.00812335)
(-0.00644596 -0.392962 -0.00641149)
(0.00649496 -0.399568 -0.00612705)
(-0.00226705 -0.399041 -0.0059571)
(0.00282473 -0.399416 -0.00587744)
(-0.00221082 -0.399376 -0.00591931)
(0.00298458 -0.398953 -0.00587738)
(-0.00586172 -0.399412 -0.00615487)
(0.00660988 -0.392909 -0.00635249)
(-0.0188481 -0.407778 -0.0080947)
(0.0196526 -0.400589 0.00900814)
(-0.0077566 -0.385637 0.00778121)
(0.00670487 -0.393015 0.00649623)
(-0.00313732 -0.392494 0.00627818)
(0.00326838 -0.392937 0.00643854)
(-0.00265037 -0.392918 0.00639655)
(0.0038642 -0.392372 0.00635893)
(-0.00609539 -0.392923 0.00646521)
(0.00798477 -0.385506 0.00783819)
(-0.0193637 -0.400411 0.00903935)
(0.0216912 -0.41572 -0.0214998)
(-0.00899668 -0.400541 -0.0194574)
(0.00843278 -0.407932 -0.0189891)
(-0.00372865 -0.40697 -0.018773)
(0.00397614 -0.407432 -0.0186715)
(-0.00340834 -0.407393 -0.0186293)
(0.00442215 -0.40689 -0.0188149)
(-0.00783735 -0.407793 -0.0189581)
(0.00915958 -0.400457 -0.0194895)
(-0.0213795 -0.415564 -0.0214995)
(0.0168257 -0.426455 0.0164714)
(-0.0100439 -0.400578 0.0129511)
(0.0102746 -0.414298 0.0125773)
(-0.00563874 -0.411002 0.0120444)
(0.00621826 -0.412475 0.0119142)
(-0.00515548 -0.4124 0.0118328)
(0.00691347 -0.410737 0.0121383)
(-0.00927903 -0.413948 0.012468)
(0.0103688 -0.400293 0.0130435)
(-0.0162455 -0.425979 0.0164802)
(0.0133183 -0.400691 -0.0100755)
(-0.00834344 -0.377003 -0.00840155)
(0.00715369 -0.389872 -0.00611685)
(-0.00439866 -0.387752 -0.00578608)
(0.00468954 -0.389025 -0.00598134)
(-0.00351948 -0.388976 -0.00592065)
(0.00566986 -0.387364 -0.00592252)
(-0.00611937 -0.389668 -0.0060458)
(0.0088502 -0.376583 -0.00851575)
(-0.012794 -0.400214 -0.0101355)
(0.0129549 -0.414315 0.00975934)
(-0.005998 -0.389855 0.00666281)
(0.00673912 -0.400439 0.00611312)
(-0.00264726 -0.398579 0.00568437)
(0.00372911 -0.399533 0.00556838)
(-0.00259867 -0.39947 0.00561908)
(0.00393528 -0.398274 0.00555608)
(-0.00570388 -0.400087 0.00620169)
(0.00633794 -0.389578 0.00653978)
(-0.0122904 -0.413859 0.00969737)
(0.0124453 -0.411104 -0.00626531)
(-0.00582551 -0.387739 -0.00502932)
(0.00616871 -0.39868 -0.00330103)
(-0.00265805 -0.397251 -0.00325756)
(0.00343662 -0.398196 -0.00320986)
(-0.00228085 -0.398142 -0.00321474)
(0.00394178 -0.396896 -0.00328429)
(-0.00511789 -0.398385 -0.00331527)
(0.00621665 -0.387418 -0.00503149)
(-0.0118491 -0.410627 -0.00628686)
(0.0122821 -0.412635 0.00592953)
(-0.00589573 -0.389106 0.00435202)
(0.00620136 -0.399743 0.00333915)
(-0.00255481 -0.39825 0.00309557)
(0.0034035 -0.399157 0.00303912)
(-0.00226573 -0.3991 0.0030554)
(0.00383955 -0.397922 0.00305475)
(-0.00514238 -0.399421 0.00336109)
(0.00624326 -0.388826 0.00430856)
(-0.0116472 -0.412163 0.00591561)
(0.0122821 -0.412635 -0.00592976)
(-0.00589573 -0.389106 -0.00435238)
(0.00620156 -0.399743 -0.00333927)
(-0.00255468 -0.39825 -0.00309578)
(0.00340348 -0.399158 -0.00303916)
(-0.00226555 -0.3991 -0.00305558)
(0.00383991 -0.397922 -0.0030546)
(-0.00514271 -0.399418 -0.00336039)
(0.00624253 -0.388828 -0.00430889)
(-0.0116474 -0.412164 -0.00591608)
(0.012445 -0.411104 0.00626518)
(-0.00582519 -0.387739 0.00502916)
(0.00616855 -0.398681 0.00330095)
(-0.00265806 -0.39725 0.00325738)
(0.00343667 -0.398195 0.00320973)
(-0.00228086 -0.39814 0.00321455)
(0.0039423 -0.396896 0.00328404)
(-0.00511798 -0.398387 0.00331483)
(0.00621616 -0.387418 0.00503154)
(-0.011849 -0.410628 0.00628706)
(0.0129549 -0.414315 -0.00975937)
(-0.00599797 -0.389855 -0.00666273)
(0.00673928 -0.400439 -0.00611324)
(-0.00264719 -0.398579 -0.00568417)
(0.00372908 -0.399533 -0.0055684)
(-0.00259861 -0.399469 -0.00561892)
(0.0039354 -0.398274 -0.00555604)
(-0.00570385 -0.400088 -0.00620194)
(0.00633779 -0.389578 -0.00653959)
(-0.0122904 -0.41386 -0.00969715)
(0.0133182 -0.400691 0.0100755)
(-0.00834333 -0.377003 0.00840154)
(0.00715365 -0.389872 0.00611689)
(-0.00439865 -0.387752 0.00578589)
(0.0046896 -0.389025 0.00598133)
(-0.00351946 -0.388976 0.00592058)
(0.00567004 -0.387364 0.0059225)
(-0.00611938 -0.389668 0.00604565)
(0.00885018 -0.376583 0.00851572)
(-0.0127939 -0.400214 0.0101355)
(0.0168257 -0.426455 -0.0164714)
(-0.0100439 -0.400578 -0.012951)
(0.0102747 -0.414298 -0.0125774)
(-0.0056387 -0.411002 -0.0120442)
(0.00621832 -0.412475 -0.0119142)
(-0.00515546 -0.4124 -0.0118327)
(0.00691357 -0.410737 -0.0121383)
(-0.009279 -0.413948 -0.012468)
(0.0103688 -0.400293 -0.0130435)
(-0.0162455 -0.42598 -0.0164802)
(0.0134404 -0.430385 0.0128925)
(-0.00967551 -0.40031 0.00830442)
(0.0107261 -0.417354 0.0082413)
(-0.00661265 -0.411697 0.00735674)
(0.00779839 -0.414159 0.00723655)
(-0.00610171 -0.414018 0.00710612)
(0.00858598 -0.411136 0.0075619)
(-0.00932889 -0.416734 0.00796483)
(0.0102926 -0.399573 0.00848334)
(-0.0125077 -0.429396 0.0128983)
(0.00887664 -0.400409 -0.00977182)
(-0.00764583 -0.37407 -0.00784748)
(0.00667387 -0.389663 -0.0048586)
(-0.00476884 -0.38607 -0.00447551)
(0.00548505 -0.388024 -0.0046259)
(-0.00357451 -0.387904 -0.00457093)
(0.00661354 -0.385387 -0.0046354)
(-0.00520716 -0.389153 -0.00475264)
(0.00860979 -0.373419 -0.00800731)
(-0.00805136 -0.399244 -0.00986586)
(0.00876728 -0.417466 0.0100055)
(-0.00461523 -0.389764 0.00596648)
(0.00613057 -0.401364 0.0051867)
(-0.00228646 -0.398454 0.00452577)
(0.00410723 -0.399776 0.00439809)
(-0.00230266 -0.399659 0.00444214)
(0.0042463 -0.397837 0.00438169)
(-0.00466053 -0.400771 0.00532328)
(0.00526685 -0.389027 0.0058009)
(-0.00771361 -0.416496 0.00992807)
(0.00797604 -0.411924 -0.0075973)
(-0.00447098 -0.386092 -0.00569882)
(0.00522669 -0.398554 -0.00331624)
(-0.00227987 -0.396349 -0.00319799)
(0.00363021 -0.397631 -0.00310535)
(-0.00176151 -0.397514 -0.00311689)
(0.00418434 -0.395691 -0.00321693)
(-0.00374519 -0.398031 -0.003363)
(0.00526344 -0.38527 -0.00570682)
(-0.00703699 -0.410976 -0.00762322)
(0.00780067 -0.41457 0.00731559)
(-0.00447603 -0.388292 0.0049007)
(0.0053109 -0.400116 0.0034328)
(-0.00208359 -0.397804 0.00303735)
(0.00357031 -0.399003 0.00294546)
(-0.0017332 -0.398888 0.00296193)
(0.00400623 -0.397166 0.00297905)
(-0.00382204 -0.39957 0.00348281)
(0.00518298 -0.387515 0.00482041)
(-0.00678101 -0.413643 0.0072985)
(0.00780075 -0.41457 -0.0073157)
(-0.00447601 -0.388293 -0.00490088)
(0.00531097 -0.400116 -0.00343287)
(-0.00208354 -0.397804 -0.00303751)
(0.00357039 -0.399003 -0.0029455)
(-0.00173245 -0.398888 -0.0029619)
(0.00400973 -0.397166 -0.00297828)
(-0.00382506 -0.399571 -0.00347967)
(0.00517775 -0.387515 -0.00482306)
(-0.00678034 -0.413643 -0.00730063)
(0.00797584 -0.411924 0.0075972)
(-0.00447076 -0.386092 0.00569869)
(0.00522654 -0.398554 0.00331616)
(-0.00227987 -0.396348 0.00319789)
(0.00363032 -0.397631 0.00310527)
(-0.00176146 -0.397514 0.00311674)
(0.00418393 -0.395691 0.00321604)
(-0.0037455 -0.398031 0.00335894)
(0.0052633 -0.38527 0.00570887)
(-0.00703708 -0.410976 0.00762456)
(0.00876731 -0.417466 -0.0100056)
(-0.00461521 -0.389764 -0.00596646)
(0.00613065 -0.401364 -0.00518679)
(-0.0022864 -0.398454 -0.00452564)
(0.00410727 -0.399776 -0.0043981)
(-0.00230274 -0.399659 -0.00444211)
(0.00424588 -0.397837 -0.00438179)
(-0.00466054 -0.400771 -0.00532292)
(0.00526704 -0.389027 -0.0058006)
(-0.00771362 -0.416496 -0.00992753)
(0.00887658 -0.400409 0.0097718)
(-0.00764577 -0.37407 0.00784744)
(0.00667383 -0.389663 0.0048586)
(-0.00476882 -0.386069 0.00447535)
(0.0054851 -0.388024 0.00462585)
(-0.00357457 -0.387904 0.00457079)
(0.00661355 -0.385387 0.00463546)
(-0.0052072 -0.389153 0.00475291)
(0.00860983 -0.373419 0.00800736)
(-0.00805129 -0.399244 0.00986595)
(0.0134404 -0.430385 -0.0128925)
(-0.00967547 -0.40031 -0.00830438)
(0.0107261 -0.417354 -0.00824137)
(-0.00661262 -0.411697 -0.00735657)
(0.00779843 -0.414159 -0.00723658)
(-0.00610173 -0.414018 -0.00710599)
(0.00858602 -0.411136 -0.00756189)
(-0.00932888 -0.416734 -0.00796474)
(0.0102926 -0.399573 -0.00848324)
(-0.0125077 -0.429396 -0.0128983)
(0.0109932 -0.430913 0.0102312)
(-0.00915859 -0.399466 0.00507725)
(0.0109218 -0.418195 0.00527484)
(-0.00683827 -0.411117 0.0040878)
(0.00889755 -0.414178 0.00399255)
(-0.00634816 -0.413928 0.00381242)
(0.0096152 -0.410143 0.00437632)
(-0.00906434 -0.417186 0.00488065)
(0.0103031 -0.398214 0.00533826)
(-0.00959315 -0.429014 0.0102068)
(0.00588918 -0.399777 -0.0094232)
(-0.00684711 -0.375187 -0.00726875)
(0.00620431 -0.390634 -0.00390478)
(-0.00446991 -0.38622 -0.00352449)
(0.00592094 -0.388447 -0.00361086)
(-0.00308086 -0.388203 -0.0035804)
(0.00705995 -0.385257 -0.00368056)
(-0.00419065 -0.389475 -0.0037916)
(0.008415 -0.374523 -0.00748359)
(-0.00463753 -0.397156 -0.00956479)
(0.00595849 -0.418445 0.00994906)
(-0.00344361 -0.390815 0.00525549)
(0.00559728 -0.401653 0.00428367)
(-0.00154957 -0.398437 0.00346178)
(0.00427088 -0.399784 0.0033222)
(-0.00157273 -0.399562 0.00335183)
(0.00428895 -0.397453 0.00334823)
(-0.00359505 -0.400647 0.00439382)
(0.00464907 -0.38945 0.00509841)
(-0.00442192 -0.416694 0.00984829)
(0.00500718 -0.41143 -0.00828214)
(-0.00336848 -0.386437 -0.00574949)
(0.0044195 -0.398541 -0.00302761)
(-0.00151574 -0.396198 -0.00283163)
(0.00365833 -0.397475 -0.00270235)
(-0.000872453 -0.397242 -0.00272159)
(0.00416846 -0.395236 -0.00284152)
(-0.00239093 -0.397538 -0.00311354)
(0.00478611 -0.385219 -0.00576237)
(-0.00366184 -0.409487 -0.00833138)
(0.00481513 -0.414847 0.00811281)
(-0.00329017 -0.38908 0.00495426)
(0.00455648 -0.400262 0.0032013)
(-0.00124544 -0.397812 0.00268651)
(0.00357661 -0.398965 0.00256524)
(-0.000826013 -0.39874 0.00257817)
(0.00392322 -0.396853 0.00262573)
(-0.00252654 -0.399286 0.003262)
(0.00458694 -0.387924 0.0048687)
(-0.00335602 -0.412913 0.00808541)
(0.00481519 -0.414847 -0.00811288)
(-0.00329015 -0.38908 -0.00495436)
(0.00455651 -0.400262 -0.00320133)
(-0.00124542 -0.397812 -0.00268663)
(0.00357665 -0.398965 -0.00256527)
(-0.000825855 -0.39874 -0.00257816)
(0.00392356 -0.396853 -0.00262557)
(-0.00252696 -0.399289 -0.00326165)
(0.0045862 -0.387922 -0.00486923)
(-0.00335616 -0.412912 -0.00808604)
(0.00500703 -0.411429 0.00828206)
(-0.0033683 -0.386437 0.00574939)
(0.00441938 -0.398542 0.00302755)
(-0.00151575 -0.396197 0.00283156)
(0.00365841 -0.397475 0.0027023)
(-0.000872417 -0.397242 0.00272149)
(0.00416845 -0.395236 0.0028413)
(-0.00239115 -0.397537 0.00311299)
(0.00478578 -0.385219 0.00576242)
(-0.00366174 -0.409486 0.00833148)
(0.00595852 -0.418445 -0.00994909)
(-0.00344359 -0.390815 -0.0052555)
(0.00559731 -0.401654 -0.00428375)
(-0.00154955 -0.398437 -0.00346168)
(0.0042709 -0.399784 -0.00332221)
(-0.00157275 -0.399562 -0.00335183)
(0.00428885 -0.397453 -0.00334828)
(-0.00359515 -0.400647 -0.00439387)
(0.00464898 -0.38945 -0.0050982)
(-0.00442193 -0.416694 -0.00984803)
(0.00588913 -0.399777 0.00942316)
(-0.00684706 -0.375187 0.0072687)
(0.00620428 -0.390634 0.00390476)
(-0.00446991 -0.38622 0.00352437)
(0.00592098 -0.388447 0.00361082)
(-0.0030809 -0.388203 0.0035803)
(0.00705995 -0.385257 0.00368053)
(-0.00419072 -0.389475 0.00379157)
(0.00841496 -0.374523 0.00748362)
(-0.00463749 -0.397156 0.00956484)
(0.0109932 -0.430913 -0.0102312)
(-0.00915856 -0.399466 -0.00507722)
(0.0109218 -0.418195 -0.00527489)
(-0.00683826 -0.411117 -0.00408766)
(0.00889758 -0.414178 -0.00399258)
(-0.0063482 -0.413928 -0.00381232)
(0.00961522 -0.410143 -0.00437633)
(-0.00906435 -0.417186 -0.00488062)
(0.010303 -0.398214 -0.00533816)
(-0.00959313 -0.429014 -0.0102067)
(0.00921776 -0.430488 0.00821716)
(-0.0085553 -0.39841 0.00284435)
(0.0110574 -0.418294 0.00316112)
(-0.00659443 -0.410265 0.00185921)
(0.00975309 -0.413507 0.00176493)
(-0.00607374 -0.413043 0.00154787)
(0.0103786 -0.408843 0.00216501)
(-0.00857227 -0.416474 0.00275325)
(0.0104371 -0.397023 0.00315839)
(-0.00722486 -0.426706 0.00815246)
(0.00393153 -0.399366 -0.00907492)
(-0.00607764 -0.378013 -0.00676686)
(0.00594011 -0.391834 -0.00326258)
(-0.00372693 -0.387379 -0.00288472)
(0.00627745 -0.389597 -0.00293086)
(-0.0022698 -0.3892 -0.00293246)
(0.00738106 -0.38598 -0.0030228)
(-0.00317019 -0.389847 -0.00317235)
(0.00839765 -0.377334 -0.00702735)
(-0.00208237 -0.394697 -0.00928021)
(0.00407138 -0.418722 0.00978813)
(-0.00248631 -0.392016 0.00462187)
(0.00524208 -0.401614 0.00352954)
(-0.000671473 -0.398537 0.00260758)
(0.00446372 -0.399672 0.00245049)
(-0.000599637 -0.399283 0.00246144)
(0.00441879 -0.397112 0.00253928)
(-0.00249677 -0.399906 0.00357422)
(0.00447699 -0.390333 0.00452876)
(-0.00197988 -0.415363 0.00963275)
(0.00305569 -0.411001 -0.00861289)
(-0.00247654 -0.387615 -0.00552728)
(0.00394658 -0.398664 -0.00268482)
(-0.000566044 -0.396527 -0.00240045)
(0.00377643 -0.397564 -0.00225542)
(0.000173491 -0.397155 -0.00228197)
(0.0042451 -0.395177 -0.00241664)
(-0.00115555 -0.396896 -0.0027956)
(0.00470838 -0.386319 -0.00559744)
(-0.00118712 -0.407169 -0.00867557)
(0.00284222 -0.414847 0.00853425)
(-0.00232815 -0.390364 0.00476453)
(0.00409317 -0.400326 0.00285714)
(-0.000272875 -0.398106 0.00224909)
(0.00367687 -0.398996 0.00210512)
(0.000239702 -0.398604 0.00211184)
(0.00396732 -0.39676 0.00219788)
(-0.0013044 -0.398643 0.002913)
(0.00443229 -0.389158 0.0047213)
(-0.000850473 -0.411022 0.00848253)
(0.00284227 -0.414847 -0.00853428)
(-0.00232813 -0.390365 -0.00476459)
(0.00409319 -0.400326 -0.00285716)
(-0.000272867 -0.398106 -0.00224917)
(0.00367689 -0.398996 -0.00210516)
(0.000239727 -0.398605 -0.00211186)
(0.00396734 -0.396761 -0.00219788)
(-0.00130448 -0.398644 -0.00291302)
(0.00443214 -0.389158 -0.00472146)
(-0.000850554 -0.411022 -0.00848274)
(0.00305556 -0.411001 0.00861284)
(-0.00247641 -0.387615 0.00552721)
(0.00394649 -0.398664 0.00268478)
(-0.000566056 -0.396526 0.00240039)
(0.00377647 -0.397564 0.00225538)
(0.000173499 -0.397155 0.00228191)
(0.00424509 -0.395177 0.00241657)
(-0.00115558 -0.396896 0.00279548)
(0.00470824 -0.386319 0.00559737)
(-0.00118702 -0.407169 0.0086755)
(0.00407139 -0.418722 -0.00978814)
(-0.0024863 -0.392016 -0.00462189)
(0.00524208 -0.401614 -0.00352958)
(-0.000671472 -0.398537 -0.00260752)
(0.00446373 -0.399672 -0.00245049)
(-0.000599646 -0.399283 -0.00246143)
(0.00441875 -0.397112 -0.0025393)
(-0.00249681 -0.399906 -0.00357425)
(0.00447692 -0.390333 -0.00452869)
(-0.00197989 -0.415363 -0.00963265)
(0.0039315 -0.399366 0.00907487)
(-0.0060776 -0.378013 0.00676682)
(0.00594008 -0.391834 0.00326255)
(-0.00372693 -0.387379 0.00288464)
(0.00627747 -0.389597 0.00293082)
(-0.00226984 -0.3892 0.00293239)
(0.00738106 -0.38598 0.00302278)
(-0.00317023 -0.389847 0.00317229)
(0.00839761 -0.377334 0.00702733)
(-0.00208235 -0.394697 0.0092802)
(0.00921774 -0.430488 -0.00821714)
(-0.00855527 -0.39841 -0.00284432)
(0.0110574 -0.418294 -0.00316117)
(-0.00659443 -0.410265 -0.0018591)
(0.00975311 -0.413507 -0.00176494)
(-0.00607377 -0.413043 -0.00154778)
(0.0103786 -0.408843 -0.00216501)
(-0.00857229 -0.416474 -0.00275324)
(0.0104371 -0.397022 -0.00315832)
(-0.00722485 -0.426706 -0.0081524)
(0.00806193 -0.429687 0.00679714)
(-0.00777215 -0.397462 0.00144796)
(0.0111672 -0.418041 0.00176036)
(-0.00595061 -0.409357 0.000480184)
(0.0105466 -0.412526 0.000362178)
(-0.00537753 -0.411742 0.000125659)
(0.0111097 -0.407361 0.000780741)
(-0.00777892 -0.415018 0.00138059)
(0.0106155 -0.396131 0.00177603)
(-0.00532368 -0.423026 0.00667294)
(0.0028437 -0.399491 -0.008635)
(-0.00521433 -0.381508 -0.00624814)
(0.00585444 -0.393373 -0.00274567)
(-0.00266066 -0.389112 -0.00239179)
(0.00673887 -0.391122 -0.00243025)
(-0.00118749 -0.390499 -0.00246797)
(0.00778999 -0.387047 -0.00250371)
(-0.00205529 -0.390328 -0.00272059)
(0.00849939 -0.380741 -0.00657811)
(-0.000202198 -0.392003 -0.00892113)
(0.00295037 -0.418896 0.00951658)
(-0.0015629 -0.393405 0.0040015)
(0.0050627 -0.401706 0.0028714)
(0.000323764 -0.398835 0.00191796)
(0.00483281 -0.399626 0.00174374)
(0.00056496 -0.398993 0.00173513)
(0.00480747 -0.39681 0.00188741)
(-0.00127835 -0.398993 0.00285419)
(0.00459151 -0.391555 0.00399691)
(-0.000167755 -0.413038 0.00929389)
(0.00193654 -0.410847 -0.00873253)
(-0.00159082 -0.38921 -0.00519135)
(0.00379789 -0.399021 -0.00235614)
(0.000537547 -0.397147 -0.00198566)
(0.00413358 -0.39782 -0.00184088)
(0.00135038 -0.397171 -0.00187358)
(0.00456202 -0.395222 -0.00201421)
(4.92498e-05 -0.396253 -0.00249058)
(0.00486092 -0.387892 -0.00536982)
(0.000635348 -0.404233 -0.00880512)
(0.00170041 -0.414925 0.00871178)
(-0.00139592 -0.391911 0.0044668)
(0.00391481 -0.400552 0.00249111)
(0.000808518 -0.398601 0.00181788)
(0.00401643 -0.399121 0.00165681)
(0.00143054 -0.398495 0.00165441)
(0.00429293 -0.396699 0.00177587)
(-6.87074e-05 -0.397918 0.00253666)
(0.00454831 -0.39074 0.00449941)
(0.000985873 -0.40833 0.00862352)
(0.00170045 -0.414925 -0.00871179)
(-0.00139591 -0.391911 -0.00446684)
(0.00391482 -0.400552 -0.00249114)
(0.000808522 -0.398601 -0.00181793)
(0.00401644 -0.399121 -0.00165684)
(0.00143054 -0.398495 -0.00165443)
(0.00429292 -0.396699 -0.00177589)
(-6.87355e-05 -0.397918 -0.00253672)
(0.00454825 -0.39074 -0.00449947)
(0.000985811 -0.40833 -0.0086236)
(0.00193644 -0.410847 0.00873249)
(-0.00159073 -0.38921 0.0051913)
(0.00379784 -0.399021 0.00235611)
(0.000537545 -0.397147 0.00198562)
(0.0041336 -0.39782 0.00184085)
(0.00135039 -0.397171 0.00187354)
(0.004562 -0.395221 0.00201418)
(4.9262e-05 -0.396253 0.00249053)
(0.00486087 -0.387892 0.00536976)
(0.000635446 -0.404233 0.00880507)
(0.00295038 -0.418896 -0.00951659)
(-0.0015629 -0.393405 -0.00400151)
(0.00506268 -0.401706 -0.00287142)
(0.000323756 -0.398835 -0.00191792)
(0.00483282 -0.399626 -0.00174374)
(0.000564954 -0.398993 -0.00173513)
(0.00480746 -0.39681 -0.00188742)
(-0.00127837 -0.398993 -0.0028542)
(0.00459147 -0.391555 -0.00399689)
(-0.000167749 -0.413038 -0.00929385)
(0.00284367 -0.399491 0.00863496)
(-0.00521431 -0.381508 0.00624811)
(0.00585442 -0.393373 0.00274565)
(-0.00266067 -0.389112 0.00239174)
(0.00673888 -0.391122 0.00243022)
(-0.00118751 -0.390499 0.00246792)
(0.00779 -0.387047 0.00250369)
(-0.00205532 -0.390328 0.00272053)
(0.00849935 -0.380741 0.00657808)
(-0.000202192 -0.392003 0.00892108)
(0.0080619 -0.429687 -0.00679712)
(-0.00777212 -0.397462 -0.00144794)
(0.0111672 -0.418041 -0.0017604)
(-0.00595062 -0.409357 -0.000480091)
(0.0105466 -0.412526 -0.000362192)
(-0.00537755 -0.411741 -0.000125586)
(0.0111097 -0.407361 -0.000780737)
(-0.00777894 -0.415018 -0.00138059)
(0.0106155 -0.396131 -0.00177599)
(-0.00532368 -0.423026 -0.00667289)
(0.00734729 -0.42859 0.00580229)
(-0.00681822 -0.396822 0.000649476)
(0.0113665 -0.417606 0.000873556)
(-0.00489697 -0.408449 -0.000322031)
(0.0114194 -0.411344 -0.000476445)
(-0.00425049 -0.41012 -0.000720212)
(0.0119408 -0.405645 -3.06413e-05)
(-0.0066849 -0.412974 0.000514844)
(0.0109241 -0.395463 0.000964363)
(-0.00369144 -0.417991 0.00560404)
(0.00237499 -0.400201 -0.00815801)
(-0.00422573 -0.385337 -0.00573295)
(0.00599529 -0.395249 -0.00233241)
(-0.00129773 -0.391216 -0.00201804)
(0.00743316 -0.392869 -0.00205979)
(0.000201368 -0.391931 -0.0021337)
(0.00841136 -0.38821 -0.00209716)
(-0.000778455 -0.390861 -0.00240998)
(0.00880361 -0.384362 -0.0061811)
(0.00126437 -0.388855 -0.00854543)
(0.00237039 -0.419086 0.00919184)
(-0.000616778 -0.395131 0.00342006)
(0.00514645 -0.402109 0.00230143)
(0.00152137 -0.399362 0.00137304)
(0.00550009 -0.399708 0.00118841)
(0.00196144 -0.398742 0.00115939)
(0.00550225 -0.39649 0.00136757)
(7.42116e-05 -0.398078 0.00224376)
(0.00500189 -0.393013 0.00350751)
(0.00128624 -0.409774 0.00888332)
(0.00139879 -0.410898 -0.00869024)
(-0.000660492 -0.391192 -0.00479113)
(0.00399153 -0.399674 -0.00204406)
(0.00183173 -0.398009 -0.00161599)
(0.00482559 -0.398236 -0.00148744)
(0.0027197 -0.397272 -0.00152665)
(0.00520139 -0.395261 -0.00166122)
(0.00132735 -0.395633 -0.0022137)
(0.00527388 -0.389642 -0.00511224)
(0.0020758 -0.400546 -0.00877968)
(0.00114476 -0.415092 0.00871039)
(-0.000438042 -0.393776 0.00411771)
(0.00406421 -0.401057 0.00213285)
(0.00205957 -0.399294 0.00142953)
(0.00469672 -0.399367 0.00125802)
(0.00280995 -0.398433 0.00124897)
(0.00495759 -0.396599 0.00139694)
(0.00125141 -0.397209 0.00216748)
(0.00495313 -0.39246 0.00424257)
(0.00242909 -0.40479 0.00857575)
(0.00114479 -0.415092 -0.00871039)
(-0.000438029 -0.393777 -0.00411773)
(0.00406421 -0.401057 -0.00213288)
(0.00205957 -0.399294 -0.00142956)
(0.00469672 -0.399367 -0.00125804)
(0.00280995 -0.398433 -0.001249)
(0.00495758 -0.396599 -0.00139696)
(0.0012514 -0.397209 -0.00216752)
(0.00495311 -0.39246 -0.0042426)
(0.00242904 -0.404791 -0.00857579)
(0.00139871 -0.410898 0.00869021)
(-0.000660421 -0.391192 0.00479109)
(0.0039915 -0.399674 0.00204404)
(0.00183173 -0.398008 0.00161596)
(0.00482559 -0.398236 0.00148742)
(0.00271971 -0.397272 0.00152662)
(0.00520138 -0.395261 0.0016612)
(0.00132736 -0.395633 0.00221365)
(0.00527385 -0.389642 0.0051122)
(0.00207588 -0.400546 0.00877962)
(0.00237039 -0.419086 -0.00919183)
(-0.000616767 -0.395131 -0.00342007)
(0.00514643 -0.402109 -0.00230144)
(0.00152136 -0.399362 -0.00137302)
(0.00550009 -0.399708 -0.00118841)
(0.00196144 -0.398742 -0.00115938)
(0.00550224 -0.39649 -0.00136758)
(7.4204e-05 -0.398078 -0.00224377)
(0.00500187 -0.393013 -0.0035075)
(0.00128625 -0.409775 -0.00888328)
(0.00237497 -0.400201 0.00815798)
(-0.00422571 -0.385337 0.00573293)
(0.00599527 -0.395249 0.00233238)
(-0.00129774 -0.391216 0.002018)
(0.00743316 -0.392869 0.00205976)
(0.000201351 -0.391931 0.00213366)
(0.00841136 -0.38821 0.00209715)
(-0.000778467 -0.390861 0.00240993)
(0.00880358 -0.384362 0.00618106)
(0.00126437 -0.388855 0.00854538)
(0.00734727 -0.42859 -0.00580227)
(-0.0068182 -0.396822 -0.000649459)
(0.0113665 -0.417606 -0.000873585)
(-0.00489697 -0.408449 0.000322108)
(0.0114194 -0.411344 0.000476434)
(-0.00425052 -0.41012 0.000720273)
(0.0119408 -0.405645 3.06438e-05)
(-0.00668492 -0.412974 -0.000514844)
(0.0109241 -0.395463 -0.000964324)
(-0.00369143 -0.417991 -0.005604)
(0.00687682 -0.427425 0.00505362)
(-0.00571221 -0.39664 0.000206155)
(0.0117831 -0.41717 0.000302831)
(-0.00339579 -0.407666 -0.000795382)
(0.0125138 -0.410084 -0.000989265)
(-0.00262997 -0.408284 -0.0012348)
(0.0129949 -0.403731 -0.000515625)
(-0.00526884 -0.410412 -5.63257e-05)
(0.0115041 -0.394941 0.000489646)
(-0.00210778 -0.411592 0.00477523)
(0.00226545 -0.401583 -0.00770971)
(-0.00310586 -0.389294 -0.00525645)
(0.00645816 -0.397436 -0.00204152)
(0.00038872 -0.393575 -0.00175568)
(0.0084857 -0.394726 -0.00180512)
(0.00196972 -0.393354 -0.00191441)
(0.00937507 -0.389285 -0.00180885)
(0.000726267 -0.391312 -0.00225877)
(0.00943782 -0.387953 -0.0058866)
(0.0026036 -0.384981 -0.00822735)
(0.00211237 -0.419423 0.00886988)
(0.000373228 -0.397218 0.00291584)
(0.00559849 -0.402864 0.00181941)
(0.00302243 -0.400141 0.000949442)
(0.00657671 -0.399947 0.000758874)
(0.00367526 -0.398542 0.000711221)
(0.00656313 -0.396105 0.000960233)
(0.00161266 -0.397095 0.00174208)
(0.00580177 -0.39455 0.00309083)
(0.00263584 -0.405443 0.00844597)
(0.00119479 -0.411253 -0.00852)
(0.000331716 -0.393571 -0.00436536)
(0.00457413 -0.400671 -0.00175164)
(0.00338022 -0.399105 -0.00131192)
(0.00594737 -0.398801 -0.00120887)
(0.00438815 -0.397427 -0.0012564)
(0.00626181 -0.395228 -0.00137599)
(0.00279081 -0.394988 -0.00197088)
(0.00605115 -0.391429 -0.00485553)
(0.00340817 -0.395969 -0.00862993)
(0.000929892 -0.415467 0.00858017)
(0.00056512 -0.395993 0.003752)
(0.00460958 -0.401896 0.00179789)
(0.00356863 -0.400201 0.00110302)
(0.0058139 -0.39975 0.000929526)
(0.00447931 -0.398416 0.000915099)
(0.00603374 -0.396418 0.00107626)
(0.00274844 -0.396466 0.00181594)
(0.00574658 -0.394189 0.00397758)
(0.00375044 -0.400274 0.00838163)